 Entering Gaussian System, Link 0=g16
 Input=beta_carotene-VIS.inp
 Output=beta_carotene-VIS.log
 Initial command:
 /home/subodh/Gaussian16/g16/l1.exe "/home/subodh/Scratch/Gau-8040.inp" -scrdir="/home/subodh/Scratch/"
 Entering Link 1 = /home/subodh/Gaussian16/g16/l1.exe PID=      8041.
  
 Copyright (c) 1988,1990,1992,1993,1995,1998,2003,2009,2016,
            Gaussian, Inc.  All Rights Reserved.
  
 This is part of the Gaussian(R) 16 program.  It is based on
 the Gaussian(R) 09 system (copyright 2009, Gaussian, Inc.),
 the Gaussian(R) 03 system (copyright 2003, Gaussian, Inc.),
 the Gaussian(R) 98 system (copyright 1998, Gaussian, Inc.),
 the Gaussian(R) 94 system (copyright 1995, Gaussian, Inc.),
 the Gaussian 92(TM) system (copyright 1992, Gaussian, Inc.),
 the Gaussian 90(TM) system (copyright 1990, Gaussian, Inc.),
 the Gaussian 88(TM) system (copyright 1988, Gaussian, Inc.),
 the Gaussian 86(TM) system (copyright 1986, Carnegie Mellon
 University), and the Gaussian 82(TM) system (copyright 1983,
 Carnegie Mellon University). Gaussian is a federally registered
 trademark of Gaussian, Inc.
  
 This software contains proprietary and confidential information,
 including trade secrets, belonging to Gaussian, Inc.
  
 This software is provided under written license and may be
 used, copied, transmitted, or stored only in accord with that
 written license.
  
 The following legend is applicable only to US Government
 contracts under FAR:
  
                    RESTRICTED RIGHTS LEGEND
  
 Use, reproduction and disclosure by the US Government is
 subject to restrictions as set forth in subparagraphs (a)
 and (c) of the Commercial Computer Software - Restricted
 Rights clause in FAR 52.227-19.
  
 Gaussian, Inc.
 340 Quinnipiac St., Bldg. 40, Wallingford CT 06492
  
  
 ---------------------------------------------------------------
 Warning -- This program may not be used in any manner that
 competes with the business of Gaussian, Inc. or will provide
 assistance to any competitor of Gaussian, Inc.  The licensee
 of this program is prohibited from giving any competitor of
 Gaussian, Inc. access to this program.  By using this program,
 the user acknowledges that Gaussian, Inc. is engaged in the
 business of creating and licensing software in the field of
 computational chemistry and represents and warrants to the
 licensee that it is not a competitor of Gaussian, Inc. and that
 it will not use this program in any manner prohibited above.
 ---------------------------------------------------------------
  

 Cite this work as:
 Gaussian 16, Revision A.03,
 M. J. Frisch, G. W. Trucks, H. B. Schlegel, G. E. Scuseria, 
 M. A. Robb, J. R. Cheeseman, G. Scalmani, V. Barone, 
 G. A. Petersson, H. Nakatsuji, X. Li, M. Caricato, A. V. Marenich, 
 J. Bloino, B. G. Janesko, R. Gomperts, B. Mennucci, H. P. Hratchian, 
 J. V. Ortiz, A. F. Izmaylov, J. L. Sonnenberg, D. Williams-Young, 
 F. Ding, F. Lipparini, F. Egidi, J. Goings, B. Peng, A. Petrone, 
 T. Henderson, D. Ranasinghe, V. G. Zakrzewski, J. Gao, N. Rega, 
 G. Zheng, W. Liang, M. Hada, M. Ehara, K. Toyota, R. Fukuda, 
 J. Hasegawa, M. Ishida, T. Nakajima, Y. Honda, O. Kitao, H. Nakai, 
 T. Vreven, K. Throssell, J. A. Montgomery, Jr., J. E. Peralta, 
 F. Ogliaro, M. J. Bearpark, J. J. Heyd, E. N. Brothers, K. N. Kudin, 
 V. N. Staroverov, T. A. Keith, R. Kobayashi, J. Normand, 
 K. Raghavachari, A. P. Rendell, J. C. Burant, S. S. Iyengar, 
 J. Tomasi, M. Cossi, J. M. Millam, M. Klene, C. Adamo, R. Cammi, 
 J. W. Ochterski, R. L. Martin, K. Morokuma, O. Farkas, 
 J. B. Foresman, and D. J. Fox, Gaussian, Inc., Wallingford CT, 2016.
 
 ******************************************
 Gaussian 16:  ES64L-G16RevA.03 25-Dec-2016
                 1-Sep-2020 
 ******************************************
 %nproc=1
 Will use up to    1 processors via shared memory.
 %mem=5GB
 %KJob L401
 kjob at link  401 occurrence number     1
 -----------------------
 #P HF/cc-PVDZ SP NOSYMM
 -----------------------
 1/38=1,172=1/1;
 2/12=2,15=1,17=6,18=5,40=1/2;
 3/5=16,11=9,25=1,30=1/1,2,3;
 4//1;
 5/5=2,38=5/2;
 6/7=2,8=2,9=2,10=2,28=1/1;
 99/5=1,9=1/99;
 Leave Link    1 at Tue Sep  1 18:17:43 2020, MaxMem=   671088640 cpu:               0.0 elap:               0.0
 (Enter /home/subodh/Gaussian16/g16/l101.exe)
 -------
 MTA job
 -------
 Symbolic Z-matrix:
 Charge =  0 Multiplicity = 1
 1                    -13.37003   2.35617  -1.86965 
 6                    -13.05307   2.09249  -0.8433 
 6                    -13.69411   0.88652   1.23893 
 6                    -11.66018   0.13038  -0.06686 
 6                    -12.69417  -0.26066   1.00037 
 6                    -11.84056   1.18541  -0.9233 
 6                    -14.21782   1.48327  -0.06436 
 1                    -13.18539   1.6852    1.81375 
 6                    -10.87058   1.5584   -2.02066 
 6                    -13.44438  -1.53089   0.55105 
 1                    -14.98645   2.24984   0.13807 
 1                    -14.70126   0.69909  -0.67398 
 1                    -12.74628   3.04952  -0.37135 
 1                    -14.52174   0.51251   1.87067 
 6                    -10.46963  -0.74178  -0.1218 
 6                    -11.98466  -0.5519    2.33593 
 1                    -14.16195  -1.84522   1.33116 
 1                    -12.74729  -2.36986   0.38381 
 1                    -13.99909  -1.36363  -0.38691 
 1                    -12.73495  -0.75037   3.12296 
 1                    -11.3725   0.31165   2.64909 
 1                    -11.32113  -1.42984   2.26613 
 1                    -10.12927   0.77084  -2.21763 
 1                    -10.32368   2.48652  -1.76698 
 1                    -11.42606   1.76614  -2.95304 
 6                    -9.17671  -0.29496  -0.12 
 1                    -10.64686  -1.82546  -0.09125 
 6                    -7.98831  -1.13746  -0.14642 
 1                    -9.00378   0.78966  -0.07916 
 6                    -6.75343  -0.52163  -0.12905 
 6                    -8.17283  -2.6344   -0.19011 
 6                    -5.45777  -1.15258  -0.14881 
 1                    -6.75134   0.57816  -0.09585 
 6                    -4.28606  -0.43003  -0.12826 
 1                    -5.40319  -2.24595  -0.18138 
 6                    -2.94945  -0.98681  -0.14629 
 1                    -4.36062   0.66722  -0.09512 
 6                    -1.87554  -0.11331  -0.12111 
 6                    -2.79662  -2.48825  -0.1916 
 6                    -0.47831  -0.44384  -0.13258 
 1                    -2.11511   0.96012  -0.08849 
 6                     0.51823   0.51083  -0.10488 
 1                    -0.1742   -1.4978   -0.1647 
 6                     1.91544   0.18026  -0.11638 
 1                     0.21414   1.5648   -0.07275 
 6                     2.98941   1.05372  -0.09125 
 1                     2.15497  -0.89319  -0.149 
 6                     4.32591   0.4968   -0.1096 
 6                     2.83674   2.55516  -0.04572 
 6                     5.49774   1.21923  -0.08899 
 1                     4.40037  -0.60046  -0.14281 
 6                     6.79317   0.58802  -0.11009 
 1                     5.44343   2.3126   -0.0559 
 6                     8.02829   1.20367  -0.09291 
 1                     6.791    -0.51175  -0.14391 
 6                     9.21606   0.36102  -0.12309 
 6                     8.21352   2.70041  -0.04535 
 6                     10.51006   0.80607  -0.10748 
 1                     9.04402  -0.72452  -0.14793 
 6                     11.68702  -0.08603  -0.13042 
 1                     10.69058   1.88481  -0.02211 
 6                     14.01881  -0.64159   0.69564 
 6                     12.95396  -2.08634  -1.01844 
 6                     13.70886  -2.08528   0.30858 
 6                     11.8109  -1.09338  -1.05176 
 6                     12.74238   0.18247   0.95236 
 1                     14.58722  -0.17113  -0.13085 
 1                     13.65118  -1.85662  -1.85104 
 1                     13.0906  -2.56357   1.08934 
 6                     10.86809  -1.3012   -2.21428 
 6                     12.14804  -0.16584   2.33104 
 6                     13.14306   1.67113   0.95659 
 1                     14.65978  -0.59322   1.59578 
 1                     12.54983  -3.09326  -1.23969 
 1                     14.6369  -2.6776    0.22517 
 1                     11.45751  -1.50467  -3.12766 
 1                     10.21889  -0.43245  -2.39586 
 1                     10.22266  -2.18532  -2.05433 
 1                     13.44765   2.00117  -0.052 
 1                     13.99838   1.81866   1.64033 
 1                     12.32503   2.32177   1.30748 
 1                     11.21746   0.40118   2.5049 
 1                     12.86421   0.08629   3.13469 
 1                     11.90334  -1.23879   2.40638 
 1                    -8.7304   -2.98098   0.6981 
 1                    -7.21729  -3.1762   -0.22335 
 1                    -8.7623   -2.92538  -1.0772 
 1                    -1.74459  -2.80479  -0.20189 
 1                    -3.28482  -2.89892  -1.09274 
 1                    -3.28351  -2.95236   0.68394 
 1                     3.32531   2.96564   0.8553 
 1                     1.78475   2.87178  -0.03501 
 1                     3.32336   3.01935  -0.92137 
 1                     8.7909    3.04662  -0.9205 
 1                     8.78425   2.98986   0.8548 
 1                     7.2582    3.24345  -0.03053 
 
 ITRead=  0  0  0  0  0  0  0  0  0  0  0  0  0  0  0  0  0  0  0  0
 ITRead=  0  0  0  0  0  0  0  0  0  0  0  0  0  0  0  0  0  0  0  0
 ITRead=  0  0  0  0  0  0  0  0  0  0  0  0  0  0  0  0  0  0  0  0
 ITRead=  0  0  0  0  0  0  0  0  0  0  0  0  0  0  0  0  0  0  0  0
 ITRead=  0  0  0  0  0  0  0  0  0  0  0  0  0  0  0  0
 MicOpt= -1 -1 -1 -1 -1 -1 -1 -1 -1 -1 -1 -1 -1 -1 -1 -1 -1 -1 -1 -1
 MicOpt= -1 -1 -1 -1 -1 -1 -1 -1 -1 -1 -1 -1 -1 -1 -1 -1 -1 -1 -1 -1
 MicOpt= -1 -1 -1 -1 -1 -1 -1 -1 -1 -1 -1 -1 -1 -1 -1 -1 -1 -1 -1 -1
 MicOpt= -1 -1 -1 -1 -1 -1 -1 -1 -1 -1 -1 -1 -1 -1 -1 -1 -1 -1 -1 -1
 MicOpt= -1 -1 -1 -1 -1 -1 -1 -1 -1 -1 -1 -1 -1 -1 -1 -1
 NAtoms=     96 NQM=       96 NQMF=       0 NMMI=      0 NMMIF=      0
                NMic=       0 NMicF=      0.
                    Isotopes and Nuclear Properties:
 (Nuclear quadrupole moments (NQMom) in fm**2, nuclear magnetic moments (NMagM)
  in nuclear magnetons)

  Atom         1           2           3           4           5           6           7           8           9          10
 IAtWgt=           1          12          12          12          12          12          12           1          12          12
 AtmWgt=   1.0078250  12.0000000  12.0000000  12.0000000  12.0000000  12.0000000  12.0000000   1.0078250  12.0000000  12.0000000
 NucSpn=           1           0           0           0           0           0           0           1           0           0
 AtZEff=  -0.0000000  -0.0000000  -0.0000000  -0.0000000  -0.0000000  -0.0000000  -0.0000000  -0.0000000  -0.0000000  -0.0000000
 NQMom=    0.0000000   0.0000000   0.0000000   0.0000000   0.0000000   0.0000000   0.0000000   0.0000000   0.0000000   0.0000000
 NMagM=    2.7928460   0.0000000   0.0000000   0.0000000   0.0000000   0.0000000   0.0000000   2.7928460   0.0000000   0.0000000
 AtZNuc=   1.0000000   6.0000000   6.0000000   6.0000000   6.0000000   6.0000000   6.0000000   1.0000000   6.0000000   6.0000000

  Atom        11          12          13          14          15          16          17          18          19          20
 IAtWgt=           1           1           1           1          12          12           1           1           1           1
 AtmWgt=   1.0078250   1.0078250   1.0078250   1.0078250  12.0000000  12.0000000   1.0078250   1.0078250   1.0078250   1.0078250
 NucSpn=           1           1           1           1           0           0           1           1           1           1
 AtZEff=  -0.0000000  -0.0000000  -0.0000000  -0.0000000  -0.0000000  -0.0000000  -0.0000000  -0.0000000  -0.0000000  -0.0000000
 NQMom=    0.0000000   0.0000000   0.0000000   0.0000000   0.0000000   0.0000000   0.0000000   0.0000000   0.0000000   0.0000000
 NMagM=    2.7928460   2.7928460   2.7928460   2.7928460   0.0000000   0.0000000   2.7928460   2.7928460   2.7928460   2.7928460
 AtZNuc=   1.0000000   1.0000000   1.0000000   1.0000000   6.0000000   6.0000000   1.0000000   1.0000000   1.0000000   1.0000000

  Atom        21          22          23          24          25          26          27          28          29          30
 IAtWgt=           1           1           1           1           1          12           1          12           1          12
 AtmWgt=   1.0078250   1.0078250   1.0078250   1.0078250   1.0078250  12.0000000   1.0078250  12.0000000   1.0078250  12.0000000
 NucSpn=           1           1           1           1           1           0           1           0           1           0
 AtZEff=  -0.0000000  -0.0000000  -0.0000000  -0.0000000  -0.0000000  -0.0000000  -0.0000000  -0.0000000  -0.0000000  -0.0000000
 NQMom=    0.0000000   0.0000000   0.0000000   0.0000000   0.0000000   0.0000000   0.0000000   0.0000000   0.0000000   0.0000000
 NMagM=    2.7928460   2.7928460   2.7928460   2.7928460   2.7928460   0.0000000   2.7928460   0.0000000   2.7928460   0.0000000
 AtZNuc=   1.0000000   1.0000000   1.0000000   1.0000000   1.0000000   6.0000000   1.0000000   6.0000000   1.0000000   6.0000000

  Atom        31          32          33          34          35          36          37          38          39          40
 IAtWgt=          12          12           1          12           1          12           1          12          12          12
 AtmWgt=  12.0000000  12.0000000   1.0078250  12.0000000   1.0078250  12.0000000   1.0078250  12.0000000  12.0000000  12.0000000
 NucSpn=           0           0           1           0           1           0           1           0           0           0
 AtZEff=  -0.0000000  -0.0000000  -0.0000000  -0.0000000  -0.0000000  -0.0000000  -0.0000000  -0.0000000  -0.0000000  -0.0000000
 NQMom=    0.0000000   0.0000000   0.0000000   0.0000000   0.0000000   0.0000000   0.0000000   0.0000000   0.0000000   0.0000000
 NMagM=    0.0000000   0.0000000   2.7928460   0.0000000   2.7928460   0.0000000   2.7928460   0.0000000   0.0000000   0.0000000
 AtZNuc=   6.0000000   6.0000000   1.0000000   6.0000000   1.0000000   6.0000000   1.0000000   6.0000000   6.0000000   6.0000000

  Atom        41          42          43          44          45          46          47          48          49          50
 IAtWgt=           1          12           1          12           1          12           1          12          12          12
 AtmWgt=   1.0078250  12.0000000   1.0078250  12.0000000   1.0078250  12.0000000   1.0078250  12.0000000  12.0000000  12.0000000
 NucSpn=           1           0           1           0           1           0           1           0           0           0
 AtZEff=  -0.0000000  -0.0000000  -0.0000000  -0.0000000  -0.0000000  -0.0000000  -0.0000000  -0.0000000  -0.0000000  -0.0000000
 NQMom=    0.0000000   0.0000000   0.0000000   0.0000000   0.0000000   0.0000000   0.0000000   0.0000000   0.0000000   0.0000000
 NMagM=    2.7928460   0.0000000   2.7928460   0.0000000   2.7928460   0.0000000   2.7928460   0.0000000   0.0000000   0.0000000
 AtZNuc=   1.0000000   6.0000000   1.0000000   6.0000000   1.0000000   6.0000000   1.0000000   6.0000000   6.0000000   6.0000000

  Atom        51          52          53          54          55          56          57          58          59          60
 IAtWgt=           1          12           1          12           1          12          12          12           1          12
 AtmWgt=   1.0078250  12.0000000   1.0078250  12.0000000   1.0078250  12.0000000  12.0000000  12.0000000   1.0078250  12.0000000
 NucSpn=           1           0           1           0           1           0           0           0           1           0
 AtZEff=  -0.0000000  -0.0000000  -0.0000000  -0.0000000  -0.0000000  -0.0000000  -0.0000000  -0.0000000  -0.0000000  -0.0000000
 NQMom=    0.0000000   0.0000000   0.0000000   0.0000000   0.0000000   0.0000000   0.0000000   0.0000000   0.0000000   0.0000000
 NMagM=    2.7928460   0.0000000   2.7928460   0.0000000   2.7928460   0.0000000   0.0000000   0.0000000   2.7928460   0.0000000
 AtZNuc=   1.0000000   6.0000000   1.0000000   6.0000000   1.0000000   6.0000000   6.0000000   6.0000000   1.0000000   6.0000000

  Atom        61          62          63          64          65          66          67          68          69          70
 IAtWgt=           1          12          12          12          12          12           1           1           1          12
 AtmWgt=   1.0078250  12.0000000  12.0000000  12.0000000  12.0000000  12.0000000   1.0078250   1.0078250   1.0078250  12.0000000
 NucSpn=           1           0           0           0           0           0           1           1           1           0
 AtZEff=  -0.0000000  -0.0000000  -0.0000000  -0.0000000  -0.0000000  -0.0000000  -0.0000000  -0.0000000  -0.0000000  -0.0000000
 NQMom=    0.0000000   0.0000000   0.0000000   0.0000000   0.0000000   0.0000000   0.0000000   0.0000000   0.0000000   0.0000000
 NMagM=    2.7928460   0.0000000   0.0000000   0.0000000   0.0000000   0.0000000   2.7928460   2.7928460   2.7928460   0.0000000
 AtZNuc=   1.0000000   6.0000000   6.0000000   6.0000000   6.0000000   6.0000000   1.0000000   1.0000000   1.0000000   6.0000000

  Atom        71          72          73          74          75          76          77          78          79          80
 IAtWgt=          12          12           1           1           1           1           1           1           1           1
 AtmWgt=  12.0000000  12.0000000   1.0078250   1.0078250   1.0078250   1.0078250   1.0078250   1.0078250   1.0078250   1.0078250
 NucSpn=           0           0           1           1           1           1           1           1           1           1
 AtZEff=  -0.0000000  -0.0000000  -0.0000000  -0.0000000  -0.0000000  -0.0000000  -0.0000000  -0.0000000  -0.0000000  -0.0000000
 NQMom=    0.0000000   0.0000000   0.0000000   0.0000000   0.0000000   0.0000000   0.0000000   0.0000000   0.0000000   0.0000000
 NMagM=    0.0000000   0.0000000   2.7928460   2.7928460   2.7928460   2.7928460   2.7928460   2.7928460   2.7928460   2.7928460
 AtZNuc=   6.0000000   6.0000000   1.0000000   1.0000000   1.0000000   1.0000000   1.0000000   1.0000000   1.0000000   1.0000000

  Atom        81          82          83          84          85          86          87          88          89          90
 IAtWgt=           1           1           1           1           1           1           1           1           1           1
 AtmWgt=   1.0078250   1.0078250   1.0078250   1.0078250   1.0078250   1.0078250   1.0078250   1.0078250   1.0078250   1.0078250
 NucSpn=           1           1           1           1           1           1           1           1           1           1
 AtZEff=  -0.0000000  -0.0000000  -0.0000000  -0.0000000  -0.0000000  -0.0000000  -0.0000000  -0.0000000  -0.0000000  -0.0000000
 NQMom=    0.0000000   0.0000000   0.0000000   0.0000000   0.0000000   0.0000000   0.0000000   0.0000000   0.0000000   0.0000000
 NMagM=    2.7928460   2.7928460   2.7928460   2.7928460   2.7928460   2.7928460   2.7928460   2.7928460   2.7928460   2.7928460
 AtZNuc=   1.0000000   1.0000000   1.0000000   1.0000000   1.0000000   1.0000000   1.0000000   1.0000000   1.0000000   1.0000000

  Atom        91          92          93          94          95          96
 IAtWgt=           1           1           1           1           1           1
 AtmWgt=   1.0078250   1.0078250   1.0078250   1.0078250   1.0078250   1.0078250
 NucSpn=           1           1           1           1           1           1
 AtZEff=  -0.0000000  -0.0000000  -0.0000000  -0.0000000  -0.0000000  -0.0000000
 NQMom=    0.0000000   0.0000000   0.0000000   0.0000000   0.0000000   0.0000000
 NMagM=    2.7928460   2.7928460   2.7928460   2.7928460   2.7928460   2.7928460
 AtZNuc=   1.0000000   1.0000000   1.0000000   1.0000000   1.0000000   1.0000000
 Leave Link  101 at Tue Sep  1 18:17:44 2020, MaxMem=   671088640 cpu:               0.1 elap:               0.1
 (Enter /home/subodh/Gaussian16/g16/l202.exe)
 Symmetry turned off by external request.
 Stoichiometry    C40H56
 Framework group  C1[X(C40H56)]
 Deg. of freedom   282
 Full point group                 C1      NOp   1
                          Input orientation:                          
 ---------------------------------------------------------------------
 Center     Atomic      Atomic             Coordinates (Angstroms)
 Number     Number       Type             X           Y           Z
 ---------------------------------------------------------------------
      1          1           0      -13.370032    2.356166   -1.869650
      2          6           0      -13.053075    2.092492   -0.843301
      3          6           0      -13.694106    0.886518    1.238928
      4          6           0      -11.660178    0.130378   -0.066858
      5          6           0      -12.694170   -0.260659    1.000373
      6          6           0      -11.840555    1.185405   -0.923304
      7          6           0      -14.217824    1.483273   -0.064356
      8          1           0      -13.185392    1.685196    1.813749
      9          6           0      -10.870575    1.558403   -2.020664
     10          6           0      -13.444381   -1.530893    0.551049
     11          1           0      -14.986454    2.249844    0.138065
     12          1           0      -14.701263    0.699086   -0.673977
     13          1           0      -12.746276    3.049519   -0.371352
     14          1           0      -14.521743    0.512505    1.870670
     15          6           0      -10.469627   -0.741778   -0.121804
     16          6           0      -11.984663   -0.551899    2.335925
     17          1           0      -14.161947   -1.845220    1.331158
     18          1           0      -12.747292   -2.369863    0.383807
     19          1           0      -13.999093   -1.363625   -0.386910
     20          1           0      -12.734948   -0.750368    3.122962
     21          1           0      -11.372502    0.311646    2.649086
     22          1           0      -11.321130   -1.429843    2.266126
     23          1           0      -10.129274    0.770838   -2.217627
     24          1           0      -10.323676    2.486516   -1.766982
     25          1           0      -11.426056    1.766142   -2.953043
     26          6           0       -9.176710   -0.294960   -0.119995
     27          1           0      -10.646860   -1.825459   -0.091251
     28          6           0       -7.988309   -1.137458   -0.146416
     29          1           0       -9.003784    0.789656   -0.079157
     30          6           0       -6.753425   -0.521632   -0.129046
     31          6           0       -8.172826   -2.634398   -0.190107
     32          6           0       -5.457765   -1.152582   -0.148807
     33          1           0       -6.751340    0.578158   -0.095853
     34          6           0       -4.286058   -0.430028   -0.128264
     35          1           0       -5.403192   -2.245955   -0.181377
     36          6           0       -2.949450   -0.986811   -0.146285
     37          1           0       -4.360617    0.667222   -0.095124
     38          6           0       -1.875536   -0.113314   -0.121105
     39          6           0       -2.796619   -2.488254   -0.191599
     40          6           0       -0.478307   -0.443838   -0.132580
     41          1           0       -2.115111    0.960123   -0.088493
     42          6           0        0.518229    0.510833   -0.104875
     43          1           0       -0.174195   -1.497798   -0.164702
     44          6           0        1.915437    0.180257   -0.116382
     45          1           0        0.214143    1.564796   -0.072747
     46          6           0        2.989413    1.053717   -0.091253
     47          1           0        2.154969   -0.893192   -0.148997
     48          6           0        4.325914    0.496801   -0.109602
     49          6           0        2.836743    2.555164   -0.045723
     50          6           0        5.497743    1.219230   -0.088988
     51          1           0        4.400373   -0.600457   -0.142808
     52          6           0        6.793166    0.588024   -0.110086
     53          1           0        5.443425    2.312598   -0.055898
     54          6           0        8.028286    1.203670   -0.092913
     55          1           0        6.790998   -0.511747   -0.143912
     56          6           0        9.216060    0.361020   -0.123093
     57          6           0        8.213516    2.700413   -0.045347
     58          6           0       10.510059    0.806073   -0.107477
     59          1           0        9.044017   -0.724520   -0.147926
     60          6           0       11.687017   -0.086028   -0.130415
     61          1           0       10.690575    1.884811   -0.022109
     62          6           0       14.018807   -0.641586    0.695637
     63          6           0       12.953960   -2.086342   -1.018440
     64          6           0       13.708856   -2.085284    0.308577
     65          6           0       11.810903   -1.093378   -1.051764
     66          6           0       12.742382    0.182472    0.952355
     67          1           0       14.587216   -0.171130   -0.130854
     68          1           0       13.651178   -1.856617   -1.851041
     69          1           0       13.090596   -2.563574    1.089341
     70          6           0       10.868091   -1.301199   -2.214277
     71          6           0       12.148042   -0.165838    2.331039
     72          6           0       13.143064    1.671130    0.956594
     73          1           0       14.659777   -0.593217    1.595777
     74          1           0       12.549829   -3.093258   -1.239687
     75          1           0       14.636904   -2.677602    0.225171
     76          1           0       11.457512   -1.504669   -3.127663
     77          1           0       10.218893   -0.432447   -2.395860
     78          1           0       10.222660   -2.185317   -2.054328
     79          1           0       13.447653    2.001175   -0.052000
     80          1           0       13.998377    1.818661    1.640329
     81          1           0       12.325027    2.321773    1.307475
     82          1           0       11.217459    0.401183    2.504904
     83          1           0       12.864212    0.086288    3.134685
     84          1           0       11.903341   -1.238786    2.406381
     85          1           0       -8.730401   -2.980981    0.698100
     86          1           0       -7.217287   -3.176201   -0.223353
     87          1           0       -8.762302   -2.925378   -1.077198
     88          1           0       -1.744588   -2.804785   -0.201887
     89          1           0       -3.284824   -2.898917   -1.092735
     90          1           0       -3.283514   -2.952358    0.683936
     91          1           0        3.325305    2.965640    0.855298
     92          1           0        1.784747    2.871784   -0.035010
     93          1           0        3.323361    3.019353   -0.921372
     94          1           0        8.790900    3.046615   -0.920504
     95          1           0        8.784248    2.989858    0.854804
     96          1           0        7.258203    3.243447   -0.030527
 ---------------------------------------------------------------------
 Rotational constants (GHZ):           0.3387729           0.0098101           0.0097040
 Leave Link  202 at Tue Sep  1 18:17:44 2020, MaxMem=   671088640 cpu:               0.0 elap:               0.0
 (Enter /home/subodh/Gaussian16/g16/l301.exe)
 Standard basis: CC-pVDZ (5D, 7F)
 Ernie: Thresh=  0.10000D-02 Tol=  0.10000D-05 Strict=F.
 Ernie:  80 primitive shells out of 1160 were deleted.
   840 basis functions,  1712 primitive gaussians,   880 cartesian basis functions
   148 alpha electrons      148 beta electrons
       nuclear repulsion energy      3627.9311654989 Hartrees.
 IExCor=    0 DFT=F Ex=HF Corr=None ExCW=0 ScaHFX=  1.000000
 ScaDFX=  1.000000  1.000000  1.000000  1.000000 ScalE2=  1.000000  1.000000
 IRadAn=      5 IRanWt=     -1 IRanGd=            0 ICorTp=0 IEmpDi=  4
 NAtoms=   96 NActive=   96 NUniq=   96 SFac= 1.00D+00 NAtFMM=   60 NAOKFM=T Big=T
 Integral buffers will be    131072 words long.
 Raffenetti 1 integral format.
 Two-electron integral symmetry is turned off.
 Leave Link  301 at Tue Sep  1 18:17:44 2020, MaxMem=   671088640 cpu:               0.0 elap:               0.0
 (Enter /home/subodh/Gaussian16/g16/l302.exe)
 NPDir=0 NMtPBC=     1 NCelOv=     1 NCel=       1 NClECP=     1 NCelD=      1
         NCelK=      1 NCelE2=     1 NClLst=     1 CellRange=     0.0.
 One-electron integrals computed using PRISM.
 NBasis=   840 RedAO= T EigKep=  4.14D-04  NBF=   840
 NBsUse=   840 1.00D-06 EigRej= -1.00D+00 NBFU=   840
 Leave Link  302 at Tue Sep  1 18:17:45 2020, MaxMem=   671088640 cpu:               1.1 elap:               1.2
 (Enter /home/subodh/Gaussian16/g16/l303.exe)
 DipDrv:  MaxL=1.
 Leave Link  303 at Tue Sep  1 18:17:45 2020, MaxMem=   671088640 cpu:               0.1 elap:               0.2
 (Enter /home/subodh/Gaussian16/g16/l401.exe)
 ExpMin= 1.22D-01 ExpMax= 6.67D+03 ExpMxC= 2.28D+02 IAcc=3 IRadAn=         5 AccDes= 0.00D+00
 Harris functional with IExCor=  205 and IRadAn=       5 diagonalized for initial guess.
 HarFok:  IExCor=  205 AccDes= 0.00D+00 IRadAn=         5 IDoV= 1 UseB2=F ITyADJ=14
 ICtDFT=  3500011 ScaDFX=  1.000000  1.000000  1.000000  1.000000
 FoFCou: FMM=F IPFlag=           0 FMFlag=      100000 FMFlg1=        2001
         NFxFlg=           0 DoJE=T BraDBF=F KetDBF=T FulRan=T
         wScrn=  0.000000 ICntrl=       500 IOpCl=  0 I1Cent=   200000004 NGrid=           0
         NMat0=    1 NMatS0=      1 NMatT0=    0 NMatD0=    1 NMtDS0=    0 NMtDT0=    0
 Symmetry not used in FoFCou.
 Harris En= -1550.33230162713    
 JPrj=0 DoOrth=F DoCkMO=F.
 Leave Link  401 at Tue Sep  1 18:18:17 2020, MaxMem=   671088640 cpu:              32.3 elap:              32.5
0******************
 *Kjob Termination*
 *  in Link    401*
 ******************
 Job cpu time:       0 days  0 hours  0 minutes 33.7 seconds.
 Elapsed time:       0 days  0 hours  0 minutes 33.9 seconds.
 File lengths (MBytes):  RWF=     59 Int=      0 D2E=      0 Chk=      1 Scr=      1
 Normal termination of Gaussian 16 at Tue Sep  1 18:18:17 2020.
 Harmonic frequencies (cm**-1), IR intensities (KM/Mole), Raman scattering
 activities (A**4/AMU), depolarization ratios for plane and unpolarized
 incident light, reduced masses (AMU), force constants (mDyne/A),
 and normal coordinates:
                    -5                     -4                     -3
                     A                      A                      A
 Frequencies --    61.8366              1167.9102              3060.7945
 Red. masses --     3.5244                 1.3857                 1.0468
 IR Inten    --     0.0021                 0.4340                47.6738
 Raman Activ --     6.3974                54.3971               145.1652
 Depolar (P) --     0.0000                 0.0000                 0.0000
 Depolar (U) --     0.0000                 0.0000                 0.0000
  Atom AN      X      Y      Z        X      Y      Z        X      Y      Z
   1   1    -0.05  -0.10  -0.09     0.00  -0.01   0.00    -0.05   0.04  -0.17
   2   6    -0.04  -0.07  -0.08     0.00   0.00   0.00     0.01   0.01   0.02
   3   6    -0.01   0.04  -0.02     0.00   0.00   0.00     0.00   0.00   0.00
   4   6    -0.02  -0.02  -0.01     0.00   0.00  -0.00     0.00  -0.00   0.00
   5   6     0.01   0.04   0.05     0.00  -0.00   0.00    -0.00   0.00   0.00
   6   6    -0.04  -0.07  -0.06     0.00   0.00  -0.00    -0.00   0.00   0.00
   7   6    -0.03  -0.04  -0.05    -0.00  -0.00  -0.00    -0.00  -0.00  -0.00
   8   1    -0.03   0.08  -0.06    -0.01   0.00   0.00    -0.01  -0.02  -0.01
   9   6    -0.06  -0.14  -0.11     0.00  -0.00   0.00     0.02   0.04  -0.03
  10   6     0.02  -0.01   0.17     0.00  -0.00   0.00     0.00   0.00   0.00
  11   1    -0.04  -0.04  -0.08     0.00   0.00   0.00     0.01  -0.02  -0.01
  12   1    -0.02  -0.08  -0.01    -0.00   0.00  -0.00     0.04   0.06   0.05
  13   1    -0.03  -0.05  -0.12    -0.00   0.00  -0.00    -0.04  -0.12  -0.06
  14   1    -0.00   0.06   0.00     0.00  -0.00  -0.00    -0.00  -0.00   0.00
  15   6    -0.02  -0.02   0.01     0.00  -0.00   0.01    -0.00   0.00   0.00
  16   6     0.05   0.16   0.05    -0.00  -0.00  -0.00    -0.00   0.00  -0.00
  17   1     0.05   0.03   0.21    -0.00  -0.00  -0.00    -0.03  -0.01   0.03
  18   1     0.03  -0.00   0.20    -0.00  -0.00  -0.00     0.02  -0.02  -0.00
  19   1    -0.01  -0.08   0.17     0.00   0.01   0.00    -0.02   0.01  -0.03
  20   1     0.07   0.19   0.08     0.00   0.00   0.01    -0.02  -0.00   0.02
  21   1     0.03   0.20  -0.02    -0.00   0.00  -0.01     0.01   0.02   0.01
  22   1     0.07   0.17   0.09     0.00   0.00  -0.00     0.01  -0.02  -0.00
  23   1    -0.07  -0.15  -0.08    -0.00  -0.00  -0.00    -0.18   0.21   0.04
  24   1    -0.05  -0.13  -0.16    -0.00   0.00   0.00    -0.37  -0.62  -0.19
  25   1    -0.08  -0.18  -0.10    -0.00  -0.00   0.00     0.28  -0.09   0.45
  26   6    -0.02  -0.01   0.00    -0.00   0.00  -0.00     0.00  -0.00   0.00
  27   1    -0.01  -0.02   0.03    -0.01  -0.00  -0.11    -0.00  -0.00   0.00
  28   6    -0.01   0.01   0.02    -0.00  -0.00   0.06    -0.00  -0.00   0.00
  29   1    -0.04  -0.00  -0.02    -0.00   0.00  -0.09     0.00   0.01  -0.00
  30   6    -0.02   0.02   0.01    -0.00  -0.00   0.00     0.00   0.00  -0.00
  31   6     0.00   0.01   0.04     0.00   0.00  -0.08    -0.00  -0.00  -0.00
  32   6    -0.01   0.03   0.01     0.00  -0.00  -0.00    -0.00   0.00  -0.00
  33   1    -0.03   0.02   0.00    -0.00   0.00  -0.14    -0.00   0.00  -0.00
  34   6    -0.01   0.04   0.00     0.00  -0.00   0.01    -0.00   0.00   0.00
  35   1    -0.01   0.03   0.01     0.00  -0.00  -0.00     0.00  -0.00  -0.00
  36   6    -0.01   0.03  -0.00     0.00   0.00  -0.05     0.00  -0.00   0.00
  37   1    -0.01   0.04   0.00     0.00   0.00  -0.02    -0.00   0.00  -0.00
  38   6    -0.01   0.03  -0.01     0.00   0.00  -0.01    -0.00   0.00   0.00
  39   6    -0.02   0.03  -0.01    -0.00  -0.00   0.07    -0.00  -0.00   0.00
  40   6    -0.01   0.01  -0.01    -0.00   0.00  -0.01    -0.00   0.00   0.00
  41   1    -0.00   0.03  -0.01     0.00  -0.00   0.14     0.00  -0.00  -0.00
  42   6     0.00   0.00  -0.02    -0.00   0.00  -0.01    -0.00   0.00   0.00
  43   1    -0.02   0.01  -0.02     0.00  -0.00   0.11     0.00  -0.00  -0.00
  44   6    -0.00  -0.01  -0.01    -0.00  -0.00  -0.01    -0.00   0.00   0.00
  45   1     0.01   0.01  -0.02     0.00  -0.00   0.11     0.00  -0.00  -0.00
  46   6     0.01  -0.02  -0.01    -0.00   0.00  -0.05    -0.00   0.00   0.00
  47   1    -0.01  -0.01  -0.01     0.00  -0.00   0.13     0.00  -0.00  -0.00
  48   6     0.01  -0.03  -0.00    -0.00  -0.00   0.01     0.00   0.00   0.00
  49   6     0.02  -0.02  -0.02     0.00  -0.00   0.06    -0.00  -0.00   0.00
  50   6     0.01  -0.03   0.01    -0.00  -0.00  -0.00    -0.00   0.00   0.00
  51   1     0.00  -0.03   0.00    -0.00   0.00  -0.02     0.00  -0.00  -0.00
  52   6     0.01  -0.03   0.01     0.00   0.00   0.00     0.00   0.00   0.00
  53   1     0.01  -0.03   0.01    -0.00   0.00  -0.01     0.00  -0.00  -0.00
  54   6     0.01  -0.02   0.02     0.00  -0.00   0.06    -0.00   0.00   0.00
  55   1     0.02  -0.03   0.01     0.00   0.00  -0.14    -0.00  -0.00  -0.00
  56   6     0.02  -0.01   0.01     0.00  -0.00  -0.00     0.00   0.00   0.00
  57   6    -0.00  -0.02   0.04    -0.00   0.00  -0.08    -0.00  -0.00  -0.00
  58   6     0.01   0.01   0.02    -0.00   0.00   0.01    -0.00   0.00   0.00
  59   1     0.03  -0.01  -0.00     0.00   0.00  -0.07    -0.00  -0.00  -0.00
  60   6     0.02   0.02  -0.00     0.00  -0.00  -0.00    -0.00   0.00   0.00
  61   1     0.00   0.01   0.03     0.00   0.01  -0.09     0.00  -0.00   0.00
  62   6     0.02   0.01  -0.00    -0.00  -0.00   0.00     0.00   0.00  -0.00
  63   6     0.05   0.06  -0.07    -0.00   0.00   0.00     0.00   0.00  -0.00
  64   6     0.05   0.02  -0.06     0.00   0.00  -0.00    -0.00  -0.00   0.00
  65   6     0.04   0.06  -0.04    -0.00   0.00  -0.00     0.00  -0.00   0.00
  66   6    -0.00  -0.03   0.03    -0.00  -0.00   0.00    -0.00   0.00   0.00
  67   1     0.01   0.06   0.02    -0.01   0.01   0.00    -0.00  -0.00   0.00
  68   1     0.05   0.09  -0.06    -0.00   0.00   0.00    -0.00  -0.00   0.00
  69   1     0.05  -0.02  -0.08    -0.00   0.01   0.00     0.00   0.00  -0.00
  70   6     0.06   0.10  -0.06    -0.00  -0.00   0.00    -0.00  -0.00  -0.00
  71   6    -0.02  -0.13   0.00     0.00   0.00   0.00    -0.00   0.00  -0.00
  72   6    -0.03  -0.02   0.14    -0.00   0.00  -0.00    -0.00  -0.00  -0.00
  73   1     0.02  -0.01   0.00     0.00  -0.01  -0.00    -0.00  -0.00  -0.00
  74   1     0.06   0.07  -0.10     0.00   0.00  -0.00    -0.00  -0.01  -0.00
  75   1     0.06   0.04  -0.08    -0.00  -0.00   0.01    -0.00   0.00   0.00
  76   1     0.07   0.13  -0.06     0.01   0.00   0.01    -0.00   0.00   0.00
  77   1     0.06   0.11  -0.04     0.00   0.00  -0.00     0.00  -0.00   0.00
  78   1     0.05   0.10  -0.10    -0.00  -0.00  -0.01     0.00   0.01  -0.00
  79   1    -0.02   0.04   0.16     0.01   0.01   0.00     0.00   0.00  -0.00
  80   1    -0.05  -0.04   0.16     0.00  -0.02  -0.00     0.00   0.00   0.00
  81   1    -0.05  -0.06   0.16     0.01   0.01   0.00    -0.00   0.00   0.00
  82   1    -0.03  -0.15   0.02    -0.00  -0.00  -0.01    -0.00   0.00   0.00
  83   1    -0.04  -0.16   0.03    -0.01  -0.00   0.01     0.00   0.00   0.00
  84   1    -0.00  -0.13  -0.06    -0.00   0.00  -0.01    -0.00  -0.00   0.00
  85   1     0.01   0.01   0.04     0.08   0.32   0.10     0.00   0.00  -0.00
  86   1     0.01   0.01   0.05    -0.00  -0.02   0.17    -0.00   0.00  -0.00
  87   1     0.01  -0.01   0.04    -0.09  -0.31   0.09     0.00   0.00   0.00
  88   1    -0.02   0.03  -0.01     0.00   0.01  -0.14    -0.00   0.00   0.00
  89   1    -0.02   0.04  -0.01     0.02   0.27  -0.07     0.00   0.00   0.00
  90   1    -0.02   0.03  -0.01    -0.01  -0.27  -0.09     0.00   0.00  -0.00
  91   1     0.02  -0.02  -0.02     0.01   0.26  -0.07     0.00   0.00   0.00
  92   1     0.02  -0.01  -0.02    -0.00   0.00  -0.13    -0.00   0.00   0.00
  93   1     0.02  -0.03  -0.02    -0.01  -0.25  -0.08     0.00   0.00  -0.00
  94   1    -0.01  -0.01   0.04     0.09   0.30   0.10     0.00   0.00  -0.00
  95   1    -0.01  -0.03   0.04    -0.08  -0.31   0.08     0.00   0.00   0.00
  96   1    -0.01  -0.03   0.04     0.00   0.00   0.16    -0.00   0.00   0.00
                    -2                     -1                      0
                     A                      A                      A
 Frequencies --    -6.7317               319.2319                 8.4733
 Red. masses --     5.5936                 2.3167                 5.3673
 IR Inten    --     0.0067                 0.2128                 0.0000
 Raman Activ --     0.0080                55.6777                13.8115
 Depolar (P) --     0.0000                 0.0000                 0.0000
 Depolar (U) --     0.0000                 0.0000                 0.0000
  Atom AN      X      Y      Z        X      Y      Z        X      Y      Z
   1   1    -0.09   0.05   0.00    -0.05  -0.07  -0.03    -0.01   0.00   0.15
   2   6    -0.09   0.05   0.00    -0.02  -0.01  -0.02    -0.00  -0.00   0.15
   3   6    -0.09   0.05   0.00    -0.02  -0.01   0.01     0.01  -0.01   0.15
   4   6    -0.09   0.05   0.00    -0.02  -0.02  -0.01     0.00  -0.00   0.14
   5   6    -0.09   0.05   0.00    -0.01  -0.01  -0.02     0.01  -0.00   0.14
   6   6    -0.09   0.05   0.00    -0.02  -0.03  -0.01    -0.00  -0.00   0.14
   7   6    -0.09   0.05   0.00    -0.02   0.08   0.06     0.00  -0.00   0.15
   8   1    -0.09   0.05   0.00    -0.02  -0.05   0.07     0.01  -0.01   0.15
   9   6    -0.09   0.05   0.00     0.03  -0.03   0.03    -0.01   0.00   0.14
  10   6    -0.09   0.05   0.00     0.05  -0.03  -0.05     0.00  -0.00   0.14
  11   1    -0.09   0.05   0.00     0.07   0.15   0.13     0.00  -0.00   0.15
  12   1    -0.09   0.05   0.00    -0.14   0.14   0.07    -0.00  -0.00   0.15
  13   1    -0.09   0.05   0.00     0.03   0.01  -0.10    -0.00  -0.00   0.15
  14   1    -0.09   0.05   0.00    -0.03  -0.04  -0.01     0.01  -0.01   0.15
  15   6    -0.09   0.05   0.00    -0.01  -0.01   0.01    -0.00  -0.00   0.13
  16   6    -0.09   0.05   0.00     0.01   0.06  -0.01     0.01  -0.01   0.14
  17   1    -0.09   0.05   0.00     0.06  -0.10  -0.07     0.01  -0.00   0.15
  18   1    -0.09   0.05   0.00     0.09   0.01  -0.07     0.00  -0.00   0.14
  19   1    -0.09   0.05   0.00     0.06  -0.02  -0.05     0.00  -0.00   0.14
  20   1    -0.09   0.05   0.00     0.03   0.08   0.01     0.01  -0.01   0.14
  21   1    -0.09   0.05   0.00    -0.00   0.09  -0.07     0.01  -0.01   0.14
  22   1    -0.09   0.05   0.00     0.03   0.07   0.02     0.01  -0.00   0.13
  23   1    -0.09   0.05   0.00    -0.02  -0.07   0.01    -0.01   0.00   0.13
  24   1    -0.09   0.05   0.00     0.09  -0.08   0.10    -0.01   0.00   0.14
  25   1    -0.09   0.05   0.00     0.07   0.06   0.03    -0.01   0.00   0.14
  26   6    -0.09   0.05   0.00    -0.02  -0.01   0.02    -0.00  -0.01   0.12
  27   1    -0.09   0.05   0.00    -0.01  -0.01   0.00    -0.00  -0.00   0.13
  28   6    -0.09   0.05   0.00    -0.01   0.01  -0.00    -0.00  -0.01   0.11
  29   1    -0.09   0.05   0.00    -0.02  -0.01   0.02     0.00  -0.01   0.13
  30   6    -0.09   0.05   0.00    -0.01   0.01  -0.02    -0.00  -0.01   0.10
  31   6    -0.09   0.05   0.00     0.01   0.00   0.00    -0.00  -0.01   0.11
  32   6    -0.09   0.05   0.00    -0.01   0.01  -0.03    -0.00  -0.01   0.09
  33   1    -0.09   0.05   0.00    -0.01   0.01  -0.02    -0.00  -0.01   0.11
  34   6    -0.09   0.05   0.00     0.00  -0.01   0.04    -0.00  -0.01   0.08
  35   1    -0.09   0.05   0.00    -0.01   0.01  -0.08    -0.00  -0.01   0.08
  36   6    -0.09   0.05   0.00     0.00  -0.00   0.01    -0.00  -0.00   0.06
  37   1    -0.09   0.05   0.00     0.01  -0.01   0.09    -0.00  -0.01   0.09
  38   6    -0.09   0.05   0.00     0.00   0.00  -0.01    -0.00  -0.00   0.05
  39   6    -0.09   0.05   0.00     0.03  -0.00   0.00    -0.00  -0.00   0.05
  40   6    -0.09   0.05   0.00    -0.00   0.00  -0.05    -0.00  -0.00   0.03
  41   1    -0.09   0.05   0.00    -0.00  -0.00   0.01    -0.00  -0.01   0.06
  42   6    -0.09   0.05   0.00    -0.00  -0.00   0.02    -0.00  -0.00   0.02
  43   1    -0.09   0.05   0.00     0.00   0.01  -0.12    -0.00  -0.00   0.02
  44   6    -0.09   0.05   0.00    -0.00  -0.00   0.02    -0.00  -0.00  -0.00
  45   1    -0.09   0.05   0.00    -0.00  -0.00   0.08    -0.00  -0.00   0.03
  46   6    -0.09   0.05   0.00    -0.00   0.00   0.01    -0.00  -0.00  -0.01
  47   1    -0.09   0.05   0.00    -0.00  -0.00   0.02    -0.00  -0.00  -0.01
  48   6    -0.09   0.05   0.00    -0.00   0.00  -0.00    -0.00  -0.00  -0.03
  49   6    -0.09   0.05   0.00    -0.02   0.00   0.00    -0.00  -0.00   0.00
  50   6    -0.09   0.05   0.00     0.00  -0.00  -0.04    -0.00  -0.00  -0.04
  51   1    -0.09   0.05   0.00    -0.00   0.00   0.03    -0.00  -0.00  -0.04
  52   6    -0.09   0.05   0.00     0.01  -0.01   0.01    -0.00  -0.00  -0.06
  53   1    -0.09   0.05   0.00     0.01  -0.00  -0.08    -0.00  -0.00  -0.03
  54   6    -0.09   0.05   0.00     0.00  -0.00   0.02    -0.00  -0.00  -0.07
  55   1    -0.09   0.05   0.00     0.01  -0.01   0.03    -0.00  -0.00  -0.07
  56   6    -0.09   0.04   0.00     0.01   0.01   0.03    -0.00   0.00  -0.08
  57   6    -0.09   0.05   0.00    -0.01  -0.00   0.00    -0.00  -0.00  -0.06
  58   6    -0.09   0.04   0.00     0.01   0.02  -0.05    -0.00   0.00  -0.09
  59   1    -0.09   0.04   0.00     0.03   0.00   0.09     0.00   0.00  -0.09
  60   6    -0.09   0.04   0.00     0.01   0.01  -0.03     0.00   0.00  -0.10
  61   1    -0.09   0.04   0.00     0.01   0.02  -0.12    -0.00   0.00  -0.08
  62   6    -0.09   0.04   0.00    -0.02  -0.02  -0.01     0.00   0.00  -0.11
  63   6    -0.09   0.04   0.00     0.03   0.04  -0.03    -0.00   0.01  -0.11
  64   6    -0.09   0.04   0.00    -0.15  -0.01   0.06     0.00   0.00  -0.11
  65   6    -0.09   0.04   0.00     0.03   0.03  -0.05    -0.00   0.01  -0.10
  66   6    -0.09   0.04   0.00     0.01   0.02  -0.01     0.01   0.00  -0.10
  67   1    -0.09   0.04   0.00    -0.01  -0.09  -0.05     0.00   0.00  -0.11
  68   1    -0.09   0.04   0.00     0.13   0.11   0.07    -0.00   0.01  -0.11
  69   1    -0.09   0.04   0.00    -0.33   0.11  -0.00     0.00   0.00  -0.11
  70   6    -0.09   0.04   0.00     0.01  -0.08  -0.03    -0.01   0.01  -0.10
  71   6    -0.09   0.04   0.00     0.14  -0.02   0.04     0.01   0.00  -0.10
  72   6    -0.09   0.04   0.00    -0.06   0.04   0.05     0.01   0.00  -0.10
  73   1    -0.09   0.04   0.00     0.00  -0.02  -0.03     0.01   0.00  -0.11
  74   1    -0.09   0.04   0.00     0.07   0.05  -0.15    -0.00   0.01  -0.11
  75   1    -0.09   0.04   0.00    -0.22  -0.14   0.22     0.00   0.00  -0.11
  76   1    -0.09   0.04   0.00     0.00  -0.07  -0.03    -0.01   0.01  -0.10
  77   1    -0.09   0.04   0.00    -0.07  -0.15  -0.04    -0.01   0.01  -0.09
  78   1    -0.09   0.04   0.00     0.10  -0.13   0.04    -0.01   0.01  -0.09
  79   1    -0.09   0.04   0.00    -0.09   0.11   0.07     0.00   0.00  -0.10
  80   1    -0.09   0.04   0.00    -0.08   0.05   0.06     0.01   0.00  -0.10
  81   1    -0.09   0.04   0.00    -0.11  -0.04   0.09     0.01   0.00  -0.10
  82   1    -0.09   0.04   0.00     0.13  -0.06   0.13     0.01   0.00  -0.10
  83   1    -0.09   0.04   0.00     0.21   0.02  -0.04     0.01   0.00  -0.10
  84   1    -0.09   0.04   0.00     0.20  -0.03   0.08     0.01   0.00  -0.10
  85   1    -0.09   0.05   0.00     0.02   0.00   0.01    -0.00  -0.01   0.11
  86   1    -0.09   0.05   0.00     0.01   0.01  -0.00    -0.00  -0.01   0.10
  87   1    -0.09   0.05   0.00     0.01  -0.00   0.01    -0.00  -0.00   0.11
  88   1    -0.09   0.05   0.00     0.03   0.01   0.03    -0.00  -0.00   0.05
  89   1    -0.09   0.05   0.00     0.05  -0.00  -0.01    -0.00   0.00   0.05
  90   1    -0.09   0.05   0.00     0.01  -0.02  -0.01     0.00  -0.01   0.05
  91   1    -0.09   0.05   0.00    -0.01   0.02  -0.01     0.00  -0.01   0.00
  92   1    -0.09   0.05   0.00    -0.03  -0.01   0.01    -0.00  -0.00   0.01
  93   1    -0.09   0.05   0.00    -0.04  -0.00  -0.01    -0.00   0.00   0.00
  94   1    -0.09   0.05   0.00    -0.04  -0.00  -0.02    -0.00   0.00  -0.06
  95   1    -0.09   0.04   0.00     0.02   0.01  -0.02    -0.00  -0.00  -0.06
  96   1    -0.09   0.05   0.00    -0.01  -0.01   0.03    -0.00  -0.00  -0.06
                     1                      2                      3
                     A                      A                      A
 Frequencies --   455.0024               740.9629               483.4867
 Red. masses --     1.2751                 3.7933                 2.8221
 IR Inten    --     0.0675                 1.9422                 1.5076
 Raman Activ --    12.4684                19.2788                 1.2598
 Depolar (P) --     0.0000                 0.0000                 0.0000
 Depolar (U) --     0.0000                 0.0000                 0.0000
  Atom AN      X      Y      Z        X      Y      Z        X      Y      Z
   1   1     0.04   0.09   0.02    -0.00   0.00   0.00     0.02  -0.00  -0.01
   2   6    -0.01   0.02   0.02    -0.00   0.00  -0.00    -0.00   0.00  -0.00
   3   6     0.07   0.06  -0.04     0.00   0.00   0.00    -0.01   0.00  -0.01
   4   6    -0.02  -0.02   0.00     0.00   0.00   0.00     0.01  -0.01   0.00
   5   6    -0.01  -0.01  -0.02    -0.00  -0.00  -0.00     0.01   0.00   0.01
   6   6    -0.03  -0.02   0.02    -0.00  -0.00  -0.00    -0.01  -0.01   0.01
   7   6    -0.01   0.00  -0.03     0.00   0.00   0.00    -0.01   0.02  -0.01
   8   1     0.18   0.07  -0.16     0.00  -0.00   0.00    -0.04   0.01   0.00
   9   6    -0.04  -0.01   0.04    -0.00  -0.00   0.00    -0.01  -0.01   0.03
  10   6     0.01  -0.03  -0.02    -0.00  -0.00  -0.00     0.01   0.02   0.00
  11   1    -0.04  -0.03  -0.03    -0.00  -0.00  -0.00     0.00   0.03  -0.00
  12   1     0.03  -0.02  -0.03     0.00  -0.00   0.00    -0.03   0.03  -0.02
  13   1     0.01  -0.01   0.08     0.00  -0.00   0.00     0.00   0.00  -0.01
  14   1     0.11   0.17   0.08    -0.00   0.00  -0.00    -0.02  -0.02  -0.03
  15   6     0.00  -0.00   0.06     0.00  -0.00  -0.00     0.01  -0.01  -0.03
  16   6     0.01   0.01  -0.03    -0.00   0.00  -0.00     0.01  -0.01   0.01
  17   1     0.17  -0.18   0.07    -0.00  -0.00   0.00    -0.01   0.02  -0.01
  18   1     0.06   0.05  -0.22    -0.00  -0.00   0.00    -0.00   0.01   0.01
  19   1    -0.16   0.01   0.09    -0.00  -0.00   0.00     0.02   0.03  -0.00
  20   1     0.04  -0.44  -0.12     0.00   0.00   0.00     0.01  -0.00   0.02
  21   1    -0.36   0.20   0.17    -0.00   0.00  -0.00     0.04  -0.03   0.01
  22   1     0.37   0.30  -0.15     0.00   0.00  -0.00    -0.01  -0.03  -0.00
  23   1    -0.04  -0.01   0.04     0.00   0.00   0.00     0.01   0.00   0.05
  24   1    -0.04  -0.01   0.05    -0.00  -0.00   0.00    -0.04   0.01   0.02
  25   1    -0.04  -0.00   0.04     0.00   0.00  -0.00     0.00  -0.04   0.01
  26   6    -0.00   0.00  -0.00     0.00  -0.00  -0.00     0.01  -0.00  -0.05
  27   1     0.02  -0.00   0.14    -0.01  -0.00  -0.00     0.02  -0.00   0.01
  28   6    -0.00  -0.01   0.01     0.00   0.00   0.00     0.01  -0.00   0.03
  29   1     0.00   0.00  -0.07     0.00  -0.00   0.00     0.01  -0.00  -0.09
  30   6    -0.01   0.00  -0.01     0.00  -0.00  -0.00     0.01   0.00   0.06
  31   6    -0.00  -0.01  -0.00     0.00   0.00   0.00    -0.01   0.00   0.00
  32   6    -0.00   0.01   0.00    -0.00  -0.00  -0.00     0.01   0.01  -0.04
  33   1    -0.01   0.00  -0.02     0.00  -0.00  -0.00    -0.00   0.00   0.10
  34   6     0.00   0.00   0.00    -0.01   0.01   0.00     0.00   0.01  -0.09
  35   1    -0.00   0.01   0.02     0.00  -0.00  -0.00     0.01   0.01  -0.00
  36   6     0.00  -0.00   0.00    -0.01   0.00   0.00    -0.01  -0.00   0.04
  37   1     0.01   0.01  -0.01    -0.01   0.00   0.00     0.01   0.01  -0.15
  38   6     0.00  -0.00   0.00     0.01  -0.02  -0.00    -0.01  -0.01   0.13
  39   6     0.00  -0.01  -0.00    -0.00   0.01   0.00     0.01  -0.00   0.01
  40   6     0.00   0.00  -0.00     0.01   0.01   0.00    -0.02  -0.01  -0.10
  41   1    -0.00  -0.00   0.00     0.01  -0.02  -0.00    -0.01  -0.01   0.25
  42   6     0.00   0.01  -0.00     0.01   0.01   0.00    -0.02  -0.00  -0.10
  43   1     0.01   0.01  -0.00     0.04   0.02  -0.00    -0.02  -0.01  -0.14
  44   6    -0.00  -0.00   0.01    -0.01  -0.03  -0.00    -0.01  -0.00   0.12
  45   1     0.00   0.01  -0.01     0.03   0.02   0.00    -0.02  -0.00  -0.13
  46   6     0.00  -0.00   0.00    -0.03  -0.00  -0.00    -0.01  -0.00   0.05
  47   1    -0.00  -0.00   0.01    -0.02  -0.03   0.00    -0.01  -0.01   0.23
  48   6     0.00   0.00  -0.00    -0.01   0.04   0.00     0.00   0.01  -0.08
  49   6    -0.00  -0.00   0.00    -0.00  -0.00  -0.00     0.01  -0.00   0.00
  50   6    -0.00   0.00  -0.00     0.03  -0.02   0.01     0.01   0.01  -0.03
  51   1     0.01   0.00  -0.00    -0.02   0.03  -0.01     0.01   0.01  -0.16
  52   6    -0.00   0.00   0.01     0.02  -0.02  -0.00     0.01   0.01   0.04
  53   1    -0.00   0.00  -0.00     0.08  -0.02   0.01     0.00   0.01   0.02
  54   6    -0.00  -0.00   0.00     0.01   0.01  -0.06     0.02   0.00   0.05
  55   1    -0.01   0.00   0.01     0.05  -0.03   0.10     0.01   0.01   0.05
  56   6    -0.00  -0.00  -0.00    -0.05  -0.08   0.06     0.01  -0.01  -0.05
  57   6    -0.00  -0.00   0.00     0.01   0.06  -0.01    -0.02   0.01  -0.01
  58   6    -0.00   0.00  -0.00    -0.09   0.06   0.03     0.01  -0.03   0.00
  59   1     0.00  -0.00  -0.01    -0.06  -0.08  -0.07    -0.02  -0.01  -0.16
  60   6     0.00   0.00   0.00     0.14   0.25  -0.24     0.04  -0.00  -0.04
  61   1    -0.00   0.00  -0.00    -0.32   0.08   0.24     0.00  -0.04   0.12
  62   6    -0.00  -0.00  -0.00     0.06   0.02  -0.01    -0.04   0.05   0.01
  63   6     0.00  -0.00  -0.00     0.04  -0.10  -0.05     0.01  -0.05  -0.01
  64   6     0.00  -0.00  -0.00    -0.00   0.03  -0.04     0.00   0.06   0.01
  65   6     0.00   0.00   0.00    -0.07  -0.13   0.09     0.10   0.07  -0.12
  66   6    -0.00   0.00   0.00     0.00  -0.01   0.02    -0.05  -0.02   0.05
  67   1    -0.00  -0.00  -0.00     0.11   0.10   0.07    -0.09   0.10   0.01
  68   1     0.00  -0.00  -0.00    -0.04   0.07  -0.07     0.03  -0.31  -0.06
  69   1     0.00  -0.00  -0.00    -0.17   0.22  -0.06     0.00   0.07   0.02
  70   6     0.00   0.00   0.01     0.01  -0.01   0.03    -0.06   0.01   0.01
  71   6    -0.00  -0.00   0.00    -0.03  -0.02   0.12    -0.01  -0.03   0.10
  72   6     0.00   0.00  -0.00    -0.02  -0.07  -0.01     0.03  -0.04  -0.03
  73   1     0.00   0.00  -0.00     0.00  -0.07   0.04    -0.01   0.06  -0.01
  74   1    -0.00   0.00  -0.00     0.19  -0.15  -0.08    -0.14  -0.04   0.19
  75   1     0.00  -0.00  -0.00    -0.07  -0.11   0.18     0.01   0.08   0.05
  76   1    -0.00   0.01   0.00     0.12   0.08   0.07    -0.22   0.14  -0.12
  77   1    -0.01  -0.00   0.01     0.14   0.09   0.06    -0.24  -0.10   0.18
  78   1     0.01  -0.01   0.00    -0.10   0.04  -0.20     0.12  -0.11   0.12
  79   1    -0.02   0.00  -0.01    -0.10  -0.16  -0.07     0.06  -0.17  -0.07
  80   1     0.01  -0.00  -0.02     0.01   0.05  -0.07     0.04  -0.05  -0.05
  81   1     0.01  -0.00   0.02    -0.04  -0.08  -0.06     0.08   0.06  -0.10
  82   1     0.00   0.00   0.00    -0.01   0.01   0.16    -0.00  -0.04   0.15
  83   1     0.00  -0.00   0.00     0.03   0.04   0.05     0.04  -0.02   0.05
  84   1    -0.00   0.00  -0.00    -0.03  -0.02   0.23     0.02  -0.04   0.11
  85   1    -0.01  -0.02  -0.02    -0.00   0.01  -0.00    -0.00  -0.01   0.00
  86   1     0.00  -0.00   0.00    -0.00   0.00  -0.00    -0.02  -0.02  -0.03
  87   1     0.01   0.00  -0.02    -0.00   0.01  -0.00    -0.04   0.03   0.01
  88   1     0.00  -0.00  -0.00     0.01   0.03   0.00     0.01   0.01  -0.03
  89   1     0.00  -0.00  -0.00     0.01  -0.00  -0.00    -0.02  -0.00   0.02
  90   1     0.01  -0.01  -0.00     0.01  -0.00   0.00     0.05  -0.02   0.02
  91   1    -0.00  -0.01   0.00     0.03  -0.04  -0.00    -0.02   0.01   0.01
  92   1    -0.00  -0.01  -0.00     0.02   0.07   0.00     0.01   0.01  -0.04
  93   1     0.00  -0.00   0.00     0.03  -0.03   0.00     0.05  -0.03   0.01
  94   1     0.00  -0.00   0.00     0.00   0.17   0.03    -0.02  -0.01  -0.02
  95   1    -0.00  -0.00   0.00    -0.01  -0.01   0.03    -0.04   0.08  -0.01
  96   1    -0.00  -0.00  -0.00    -0.00   0.03   0.06    -0.04  -0.02  -0.04
                     4                      5                      6
                     A                      A                      A
 Frequencies --   378.3235              1305.9436                75.3303
 Red. masses --     1.1172                 2.4497                 4.0500
 IR Inten    --     0.1451                 6.3724                 0.0722
 Raman Activ --     9.4636               161.4105                 0.1296
 Depolar (P) --     0.0000                 0.0000                 0.0000
 Depolar (U) --     0.0000                 0.0000                 0.0000
  Atom AN      X      Y      Z        X      Y      Z        X      Y      Z
   1   1     0.01   0.00   0.01     0.11   0.04  -0.05    -0.08  -0.09  -0.07
   2   6     0.00  -0.01   0.01     0.02   0.02  -0.04    -0.09  -0.06  -0.06
   3   6     0.00  -0.00   0.00    -0.07   0.04   0.00    -0.06  -0.04  -0.04
   4   6     0.00  -0.01  -0.00     0.03  -0.02   0.01    -0.00   0.03   0.01
   5   6     0.00  -0.00  -0.00     0.03   0.01  -0.21     0.01   0.01   0.01
   6   6     0.00  -0.01  -0.00    -0.17   0.02   0.13    -0.04   0.00  -0.01
   7   6     0.00  -0.00   0.00     0.05  -0.06   0.05    -0.07  -0.10  -0.06
   8   1     0.00  -0.00  -0.00    -0.10   0.15  -0.13    -0.11  -0.00  -0.05
   9   6    -0.00   0.01   0.00     0.06  -0.02  -0.05    -0.04   0.02  -0.01
  10   6    -0.01   0.01  -0.01    -0.01  -0.01   0.09     0.08  -0.05   0.06
  11   1     0.00  -0.00   0.00     0.20   0.14  -0.15    -0.11  -0.14  -0.09
  12   1    -0.00  -0.00   0.00    -0.06  -0.03   0.10    -0.02  -0.14  -0.05
  13   1     0.01  -0.01   0.01     0.23  -0.05  -0.03    -0.14  -0.04  -0.07
  14   1     0.01  -0.00   0.00     0.20  -0.21   0.19    -0.05  -0.07  -0.04
  15   6     0.00  -0.01   0.00     0.01   0.01   0.01     0.03   0.07   0.03
  16   6    -0.00   0.01   0.00    -0.03  -0.02   0.06     0.02   0.10   0.03
  17   1    -0.02   0.01  -0.02    -0.17  -0.21  -0.15     0.10  -0.06   0.07
  18   1    -0.01  -0.00  -0.01     0.03   0.07  -0.18     0.12  -0.02   0.09
  19   1     0.00   0.02  -0.01     0.23   0.24  -0.01     0.07  -0.11   0.05
  20   1    -0.00   0.02   0.00     0.19  -0.07   0.26     0.02   0.10   0.04
  21   1    -0.01   0.02  -0.01     0.08  -0.04  -0.06    -0.02   0.14  -0.01
  22   1     0.00   0.02   0.02     0.07   0.05  -0.03     0.05   0.12   0.07
  23   1     0.01   0.02   0.00     0.17   0.13  -0.23    -0.02   0.04   0.00
  24   1    -0.02   0.02   0.00    -0.01   0.04  -0.07    -0.05   0.03   0.00
  25   1    -0.01  -0.01  -0.00     0.06   0.08  -0.03    -0.03   0.01  -0.01
  26   6     0.00   0.00  -0.01    -0.01  -0.01  -0.00     0.02   0.08   0.03
  27   1     0.01  -0.01   0.01    -0.11   0.03  -0.01     0.05   0.06   0.05
  28   6     0.00   0.00  -0.00     0.00   0.01   0.00     0.02   0.08   0.03
  29   1    -0.00   0.00  -0.01    -0.12   0.01  -0.00     0.02   0.08   0.01
  30   6     0.00   0.00   0.00     0.01  -0.01  -0.00     0.03   0.06   0.01
  31   6    -0.01   0.00   0.00     0.00  -0.00  -0.00     0.01   0.08   0.06
  32   6     0.00  -0.00  -0.01    -0.01   0.01   0.00     0.02   0.03  -0.01
  33   1     0.00   0.00   0.01     0.01  -0.02  -0.00     0.05   0.06   0.00
  34   6    -0.00  -0.00   0.01    -0.00  -0.00   0.00     0.04   0.00  -0.02
  35   1    -0.00  -0.00  -0.03    -0.03   0.01  -0.00    -0.01   0.03  -0.01
  36   6    -0.00  -0.00   0.00     0.00  -0.00  -0.00     0.02  -0.04  -0.04
  37   1    -0.00  -0.00   0.03     0.02   0.00  -0.00     0.07   0.00  -0.02
  38   6    -0.00   0.00  -0.01     0.01  -0.00  -0.00     0.04  -0.07  -0.03
  39   6    -0.00  -0.00  -0.00    -0.00   0.00   0.00    -0.02  -0.05  -0.07
  40   6    -0.00   0.00   0.01    -0.01   0.00   0.00     0.04  -0.10  -0.01
  41   1    -0.00   0.00  -0.03     0.03   0.00  -0.00     0.07  -0.07  -0.02
  42   6    -0.00   0.00  -0.01    -0.00   0.00   0.00     0.04  -0.10   0.01
  43   1    -0.00   0.00   0.05    -0.02   0.00  -0.00     0.03  -0.10  -0.01
  44   6     0.00   0.00   0.02     0.00  -0.00  -0.00     0.04  -0.08   0.02
  45   1    -0.00   0.00  -0.06     0.00   0.00  -0.00     0.03  -0.10   0.01
  46   6     0.00   0.00   0.01     0.00   0.00   0.00     0.02  -0.06   0.04
  47   1    -0.00   0.00   0.02     0.01  -0.00  -0.00     0.06  -0.08   0.01
  48   6     0.00   0.00  -0.03    -0.00  -0.00  -0.00     0.04  -0.02   0.02
  49   6    -0.02   0.00  -0.00    -0.00  -0.00  -0.00    -0.01  -0.06   0.06
  50   6     0.01  -0.01   0.04    -0.00   0.00   0.00     0.02   0.02   0.01
  51   1    -0.01   0.00  -0.12    -0.01  -0.00  -0.00     0.07  -0.01   0.01
  52   6     0.02  -0.01  -0.01     0.00  -0.00  -0.00     0.03   0.05  -0.01
  53   1     0.02  -0.02   0.14    -0.01   0.00   0.00    -0.01   0.02   0.02
  54   6     0.01  -0.00  -0.01     0.00  -0.00  -0.00     0.02   0.07  -0.03
  55   1     0.02  -0.01  -0.03    -0.01  -0.00  -0.00     0.05   0.05  -0.00
  56   6     0.02   0.01   0.03    -0.00   0.00  -0.00     0.02   0.08  -0.02
  57   6    -0.00   0.00  -0.00    -0.00   0.00   0.00     0.01   0.07  -0.05
  58   6     0.01   0.01   0.02    -0.00   0.00   0.00     0.03   0.07  -0.03
  59   1     0.03   0.01   0.04    -0.01   0.00   0.00     0.02   0.08  -0.01
  60   6    -0.00  -0.00   0.00     0.00  -0.00  -0.00    -0.00   0.03  -0.01
  61   1     0.02   0.01   0.02    -0.00   0.00  -0.00     0.04   0.06  -0.03
  62   6    -0.00   0.00  -0.01     0.00  -0.00   0.00    -0.05  -0.08   0.04
  63   6    -0.01  -0.00  -0.01    -0.00   0.00  -0.00    -0.09  -0.05   0.05
  64   6    -0.01   0.00  -0.01    -0.00   0.00   0.00    -0.12  -0.07   0.06
  65   6    -0.01  -0.00  -0.00     0.00  -0.00   0.00    -0.04   0.01   0.01
  66   6    -0.00  -0.00  -0.00    -0.00  -0.00  -0.00     0.00   0.00  -0.01
  67   1    -0.01   0.00  -0.01     0.00  -0.00  -0.00    -0.00  -0.13   0.04
  68   1    -0.01   0.00  -0.01    -0.00   0.00  -0.00    -0.06  -0.10   0.06
  69   1    -0.01   0.00  -0.01     0.00   0.00   0.00    -0.16  -0.03   0.06
  70   6     0.01  -0.02  -0.02    -0.00   0.00  -0.00    -0.03   0.04  -0.01
  71   6    -0.01   0.01   0.00     0.00   0.00   0.00    -0.03   0.09   0.00
  72   6    -0.01   0.00   0.00     0.00   0.00   0.00     0.08  -0.02  -0.07
  73   1     0.00  -0.00  -0.01    -0.00   0.00   0.00    -0.06  -0.10   0.05
  74   1    -0.01  -0.00  -0.01    -0.00   0.00  -0.00    -0.14  -0.03   0.05
  75   1    -0.01  -0.00  -0.01    -0.00  -0.00  -0.00    -0.15  -0.12   0.09
  76   1     0.04   0.07  -0.02     0.00  -0.00   0.00    -0.02   0.03   0.00
  77   1    -0.06  -0.07   0.02    -0.00  -0.00  -0.00    -0.01   0.05  -0.01
  78   1     0.09  -0.09  -0.06     0.00  -0.00  -0.00    -0.05   0.05  -0.02
  79   1    -0.03   0.02   0.00    -0.00  -0.00  -0.00     0.10  -0.07  -0.08
  80   1     0.00  -0.00  -0.01     0.00   0.00  -0.00     0.09  -0.04  -0.07
  81   1    -0.01  -0.01   0.03    -0.00   0.00  -0.00     0.12   0.04  -0.09
  82   1    -0.01   0.02  -0.01    -0.00  -0.00  -0.00    -0.01   0.13  -0.03
  83   1    -0.01   0.02   0.00    -0.00  -0.00   0.00    -0.03   0.10  -0.00
  84   1    -0.01   0.01   0.01    -0.00   0.00  -0.00    -0.06   0.10   0.04
  85   1    -0.03   0.01  -0.01     0.00  -0.00  -0.00     0.01   0.10   0.06
  86   1    -0.01  -0.00   0.03     0.00  -0.00  -0.00     0.01   0.07   0.06
  87   1     0.01   0.00  -0.01     0.00  -0.01   0.00     0.01   0.07   0.06
  88   1    -0.00  -0.01   0.09     0.00   0.01   0.00    -0.03  -0.07  -0.08
  89   1     0.07   0.01  -0.05     0.00  -0.00  -0.00    -0.03  -0.02  -0.07
  90   1    -0.09  -0.01  -0.05     0.00  -0.00   0.00    -0.02  -0.05  -0.07
  91   1     0.11   0.04  -0.09     0.00  -0.00  -0.00    -0.02  -0.07   0.07
  92   1    -0.03  -0.02   0.16     0.00   0.00   0.00    -0.02  -0.08   0.07
  93   1    -0.17  -0.01  -0.09     0.00  -0.00   0.00    -0.03  -0.04   0.07
  94   1     0.42  -0.05   0.26     0.00  -0.00   0.00     0.00   0.06  -0.05
  95   1    -0.44   0.05   0.26     0.00  -0.00  -0.00     0.00   0.09  -0.05
  96   1    -0.01   0.01  -0.51     0.00   0.00   0.00     0.00   0.06  -0.05
                     7                      8                      9
                     A                      A                      A
 Frequencies --    29.4130                 4.7169                13.3739
 Red. masses --     5.1883                 5.5784                 5.2473
 IR Inten    --     0.1942                 0.0002                 0.0000
 Raman Activ --     0.1726                 0.0064                15.2345
 Depolar (P) --     0.0000                 0.0000                 0.0000
 Depolar (U) --     0.0000                 0.0000                 0.0000
  Atom AN      X      Y      Z        X      Y      Z        X      Y      Z
   1   1    -0.04  -0.10  -0.02     0.05   0.09   0.00    -0.01  -0.13  -0.01
   2   6    -0.04  -0.09  -0.01     0.05   0.09   0.00    -0.01  -0.13  -0.01
   3   6    -0.04  -0.11  -0.02     0.05   0.09   0.00    -0.01  -0.13  -0.01
   4   6    -0.01  -0.06  -0.00     0.05   0.09   0.00    -0.00  -0.12  -0.01
   5   6    -0.02  -0.09  -0.02     0.05   0.09   0.00    -0.00  -0.13  -0.01
   6   6    -0.02  -0.06  -0.00     0.05   0.09   0.00    -0.01  -0.12  -0.01
   7   6    -0.04  -0.11  -0.02     0.05   0.09   0.00    -0.01  -0.13  -0.01
   8   1    -0.05  -0.10  -0.01     0.05   0.09   0.00    -0.01  -0.13  -0.01
   9   6    -0.02  -0.04   0.01     0.05   0.09   0.00    -0.01  -0.11  -0.01
  10   6     0.01  -0.10  -0.04     0.05   0.09   0.00     0.00  -0.13  -0.02
  11   1    -0.05  -0.12  -0.02     0.05   0.09   0.00    -0.01  -0.14  -0.01
  12   1    -0.03  -0.11  -0.02     0.05   0.09   0.00    -0.01  -0.13  -0.01
  13   1    -0.06  -0.08  -0.01     0.05   0.09   0.00    -0.02  -0.12  -0.01
  14   1    -0.03  -0.12  -0.03     0.05   0.09   0.00    -0.01  -0.14  -0.02
  15   6     0.01  -0.03   0.01     0.05   0.09   0.00     0.00  -0.11  -0.00
  16   6    -0.03  -0.09  -0.01     0.05   0.09   0.00    -0.01  -0.13  -0.01
  17   1     0.01  -0.12  -0.05     0.05   0.09   0.00     0.00  -0.13  -0.02
  18   1     0.03  -0.09  -0.05     0.05   0.09   0.00     0.01  -0.12  -0.02
  19   1     0.02  -0.10  -0.05     0.05   0.09   0.00     0.00  -0.13  -0.02
  20   1    -0.03  -0.10  -0.02     0.05   0.09   0.00    -0.01  -0.13  -0.01
  21   1    -0.04  -0.09  -0.00     0.05   0.09   0.00    -0.01  -0.13  -0.01
  22   1    -0.02  -0.09  -0.01     0.05   0.09   0.00    -0.01  -0.13  -0.01
  23   1    -0.01  -0.03   0.01     0.05   0.09   0.00    -0.01  -0.11  -0.01
  24   1    -0.03  -0.04   0.02     0.05   0.09   0.00    -0.01  -0.11  -0.01
  25   1    -0.02  -0.04   0.01     0.05   0.09   0.00    -0.01  -0.11  -0.01
  26   6     0.00   0.00   0.02     0.05   0.09   0.00     0.00  -0.10  -0.00
  27   1     0.04  -0.03   0.02     0.05   0.09   0.00     0.01  -0.11  -0.00
  28   6     0.02   0.03   0.03     0.05   0.09   0.00     0.01  -0.09   0.00
  29   1    -0.02   0.01   0.02     0.05   0.09   0.00    -0.01  -0.10  -0.00
  30   6     0.01   0.06   0.03     0.05   0.09   0.00     0.00  -0.07   0.00
  31   6     0.06   0.03   0.04     0.05   0.09   0.00     0.02  -0.09   0.00
  32   6     0.02   0.09   0.04     0.05   0.09   0.00     0.01  -0.06   0.01
  33   1    -0.01   0.06   0.03     0.05   0.09   0.00    -0.01  -0.07   0.00
  34   6     0.01   0.10   0.04     0.05   0.09   0.00     0.00  -0.05   0.01
  35   1     0.04   0.09   0.04     0.05   0.09   0.00     0.02  -0.06   0.01
  36   6     0.02   0.12   0.03     0.05   0.09   0.00     0.01  -0.03   0.01
  37   1    -0.00   0.10   0.04     0.05   0.09   0.00    -0.01  -0.05   0.01
  38   6     0.01   0.13   0.02     0.05   0.09   0.00    -0.00  -0.02   0.01
  39   6     0.04   0.12   0.03     0.05   0.09   0.00     0.02  -0.03   0.01
  40   6     0.01   0.14   0.01     0.05   0.09   0.00     0.00  -0.01   0.02
  41   1     0.00   0.13   0.02     0.05   0.09   0.00    -0.01  -0.03   0.01
  42   6     0.01   0.14   0.00     0.05   0.09   0.00    -0.01   0.00   0.02
  43   1     0.02   0.14   0.00     0.05   0.09   0.00     0.01  -0.00   0.02
  44   6     0.01   0.14  -0.01     0.05   0.09   0.00    -0.00   0.02   0.02
  45   1     0.02   0.14   0.01     0.05   0.09   0.00    -0.02   0.00   0.02
  46   6     0.02   0.13  -0.02     0.05   0.09   0.00    -0.01   0.03   0.02
  47   1     0.00   0.13  -0.02     0.05   0.09   0.00     0.01   0.02   0.01
  48   6     0.01   0.11  -0.03     0.05   0.09   0.00    -0.01   0.05   0.01
  49   6     0.04   0.13  -0.02     0.05   0.09   0.00    -0.03   0.03   0.02
  50   6     0.02   0.09  -0.03     0.05   0.09   0.00    -0.01   0.06   0.01
  51   1    -0.00   0.11  -0.03     0.05   0.09   0.00     0.00   0.05   0.01
  52   6     0.01   0.06  -0.03     0.05   0.09   0.00    -0.01   0.07   0.01
  53   1     0.04   0.09  -0.03     0.05   0.09   0.00    -0.02   0.06   0.01
  54   6     0.02   0.03  -0.03     0.05   0.09   0.00    -0.01   0.08   0.01
  55   1    -0.01   0.06  -0.03     0.05   0.09   0.00     0.00   0.07   0.01
  56   6     0.00   0.00  -0.02     0.05   0.09   0.00    -0.01   0.10   0.00
  57   6     0.06   0.03  -0.04     0.05   0.09   0.00    -0.03   0.09   0.01
  58   6     0.01  -0.03  -0.02     0.05   0.09   0.00    -0.01   0.11   0.00
  59   1    -0.02   0.01  -0.02     0.05   0.09   0.00     0.00   0.09   0.00
  60   6    -0.01  -0.06  -0.00     0.05   0.09   0.00    -0.00   0.12  -0.00
  61   1     0.04  -0.03  -0.02     0.05   0.09   0.00    -0.02   0.11   0.01
  62   6    -0.03  -0.11   0.02     0.05   0.09   0.00     0.00   0.13  -0.01
  63   6    -0.04  -0.09   0.01     0.05   0.09   0.00     0.01   0.12  -0.00
  64   6    -0.05  -0.11   0.01     0.05   0.09   0.00     0.01   0.13  -0.00
  65   6    -0.02  -0.06  -0.00     0.05   0.09   0.00     0.00   0.12  -0.00
  66   6    -0.02  -0.09   0.02     0.05   0.09   0.00    -0.00   0.13  -0.01
  67   1    -0.02  -0.12   0.03     0.05   0.10   0.00    -0.00   0.13  -0.01
  68   1    -0.04  -0.10   0.01     0.05   0.09   0.00     0.01   0.13  -0.00
  69   1    -0.06  -0.10   0.00     0.05   0.09   0.00     0.01   0.13  -0.00
  70   6    -0.02  -0.04  -0.01     0.05   0.09   0.00     0.00   0.11  -0.00
  71   6    -0.04  -0.10   0.00     0.05   0.09   0.00     0.00   0.13  -0.00
  72   6     0.01  -0.10   0.04     0.05   0.09   0.00    -0.01   0.13  -0.01
  73   1    -0.04  -0.13   0.02     0.05   0.10   0.00     0.00   0.13  -0.01
  74   1    -0.06  -0.08   0.00     0.05   0.09   0.00     0.01   0.12  -0.00
  75   1    -0.06  -0.12   0.01     0.05   0.10   0.00     0.01   0.13  -0.00
  76   1    -0.01  -0.04  -0.01     0.05   0.09   0.00     0.00   0.11  -0.00
  77   1    -0.01  -0.03  -0.01     0.05   0.09   0.00    -0.00   0.11  -0.00
  78   1    -0.03  -0.04  -0.02     0.05   0.09   0.00     0.00   0.11   0.00
  79   1     0.02  -0.09   0.05     0.05   0.09   0.00    -0.01   0.13  -0.01
  80   1     0.00  -0.12   0.05     0.05   0.10   0.00    -0.01   0.13  -0.01
  81   1     0.01  -0.09   0.04     0.05   0.09   0.00    -0.01   0.13  -0.01
  82   1    -0.04  -0.10  -0.00     0.05   0.09   0.00     0.00   0.13  -0.00
  83   1    -0.05  -0.11   0.02     0.05   0.09   0.00     0.01   0.13  -0.01
  84   1    -0.05  -0.10  -0.01     0.05   0.09   0.00     0.01   0.13   0.00
  85   1     0.06   0.02   0.04     0.05   0.09   0.00     0.02  -0.09   0.00
  86   1     0.07   0.05   0.04     0.05   0.09   0.00     0.03  -0.08   0.01
  87   1     0.07   0.01   0.04     0.05   0.09   0.00     0.02  -0.09   0.00
  88   1     0.04   0.13   0.03     0.05   0.09   0.00     0.03  -0.02   0.02
  89   1     0.04   0.12   0.03     0.05   0.09   0.00     0.03  -0.04   0.01
  90   1     0.04   0.12   0.03     0.05   0.09   0.00     0.03  -0.04   0.01
  91   1     0.04   0.12  -0.02     0.05   0.09   0.00    -0.03   0.03   0.02
  92   1     0.04   0.14  -0.02     0.05   0.09   0.00    -0.03   0.02   0.02
  93   1     0.04   0.12  -0.02     0.05   0.09   0.00    -0.03   0.04   0.02
  94   1     0.07   0.02  -0.04     0.05   0.09   0.00    -0.03   0.09   0.01
  95   1     0.06   0.02  -0.04     0.05   0.09   0.00    -0.03   0.09   0.01
  96   1     0.07   0.05  -0.04     0.05   0.09   0.00    -0.03   0.08   0.01
                    10                     11                     12
                     A                      A                      A
 Frequencies --    35.1048                67.6454                 6.2784
 Red. masses --     4.9829                 4.3803                 5.5415
 IR Inten    --     0.0191                 0.0020                 0.0000
 Raman Activ --     4.3177                 0.8284                 0.6683
 Depolar (P) --     0.0000                 0.0000                 0.0000
 Depolar (U) --     0.0000                 0.0000                 0.0000
  Atom AN      X      Y      Z        X      Y      Z        X      Y      Z
   1   1     0.07   0.00  -0.09    -0.09   0.01   0.05     0.00  -0.00   0.08
   2   6     0.04   0.01  -0.08    -0.06   0.00   0.03     0.00  -0.00   0.08
   3   6    -0.03   0.04  -0.09     0.03  -0.03   0.04     0.00  -0.00   0.08
   4   6     0.00   0.01  -0.02    -0.00   0.02  -0.04     0.00  -0.00   0.07
   5   6    -0.03   0.03  -0.05     0.04  -0.01  -0.01     0.00  -0.00   0.08
   6   6     0.04   0.00  -0.04    -0.04   0.03  -0.01     0.00  -0.00   0.08
   7   6     0.01   0.03  -0.11    -0.02  -0.03   0.06     0.00  -0.00   0.08
   8   1    -0.04   0.04  -0.08     0.03  -0.03   0.03     0.00  -0.00   0.08
   9   6     0.07  -0.02  -0.01    -0.08   0.06  -0.03     0.00  -0.00   0.08
  10   6    -0.03   0.03  -0.06     0.05  -0.02   0.01     0.00  -0.00   0.08
  11   1     0.02   0.04  -0.13    -0.03  -0.04   0.09     0.00  -0.00   0.08
  12   1     0.02   0.03  -0.11    -0.03  -0.03   0.07     0.00  -0.00   0.08
  13   1     0.04   0.01  -0.09    -0.06   0.00   0.04     0.00  -0.00   0.08
  14   1    -0.05   0.05  -0.11     0.05  -0.06   0.06     0.00  -0.00   0.08
  15   6     0.00   0.00   0.04     0.00   0.03  -0.08     0.00  -0.00   0.08
  16   6    -0.08   0.03  -0.02     0.09  -0.01  -0.03     0.00  -0.00   0.08
  17   1    -0.04   0.03  -0.07     0.06  -0.03   0.02     0.00  -0.00   0.08
  18   1    -0.03   0.03  -0.06     0.05  -0.02  -0.00     0.00  -0.00   0.08
  19   1    -0.02   0.04  -0.07     0.03  -0.03   0.01     0.00  -0.00   0.08
  20   1    -0.10   0.04  -0.04     0.11  -0.03  -0.01     0.00  -0.00   0.08
  21   1    -0.08   0.03  -0.01     0.09  -0.01  -0.04     0.00  -0.00   0.08
  22   1    -0.08   0.03   0.00     0.10  -0.01  -0.06     0.00  -0.00   0.08
  23   1     0.07  -0.03   0.01    -0.07   0.07  -0.06     0.00  -0.00   0.08
  24   1     0.07  -0.02  -0.01    -0.09   0.06  -0.04     0.00  -0.00   0.08
  25   1     0.10  -0.02  -0.03    -0.10   0.05  -0.02     0.00  -0.00   0.08
  26   6     0.00  -0.00   0.06     0.00   0.03  -0.08     0.00  -0.00   0.08
  27   1    -0.00   0.01   0.05     0.01   0.03  -0.08     0.00  -0.00   0.08
  28   6     0.00  -0.01   0.11     0.00   0.03  -0.06     0.00  -0.00   0.08
  29   1     0.01  -0.00   0.05     0.00   0.03  -0.08     0.00  -0.00   0.07
  30   6     0.00  -0.02   0.12     0.00   0.02  -0.01     0.00  -0.00   0.08
  31   6    -0.01  -0.01   0.14    -0.01   0.03  -0.08     0.00  -0.00   0.08
  32   6     0.00  -0.02   0.13    -0.00   0.00   0.07     0.00  -0.00   0.08
  33   1     0.01  -0.02   0.11     0.01   0.02  -0.01     0.00  -0.00   0.08
  34   6     0.00  -0.03   0.13     0.01  -0.01   0.10     0.00  -0.00   0.08
  35   1    -0.00  -0.02   0.14    -0.01   0.00   0.09     0.00  -0.00   0.08
  36   6     0.00  -0.03   0.10     0.00  -0.02   0.13     0.00  -0.00   0.09
  37   1     0.01  -0.03   0.13     0.02  -0.01   0.07     0.00  -0.00   0.08
  38   6     0.00  -0.03   0.07     0.01  -0.03   0.09     0.00  -0.00   0.09
  39   6    -0.00  -0.03   0.10    -0.01  -0.03   0.20     0.00  -0.00   0.09
  40   6     0.00  -0.03   0.01     0.01  -0.04   0.03     0.00  -0.00   0.09
  41   1     0.01  -0.03   0.08     0.02  -0.03   0.06     0.00  -0.00   0.09
  42   6     0.00  -0.03  -0.02     0.01  -0.04  -0.03     0.00  -0.00   0.09
  43   1     0.00  -0.03  -0.01     0.00  -0.04   0.03     0.00  -0.00   0.09
  44   6     0.00  -0.03  -0.08     0.01  -0.03  -0.09     0.00  -0.00   0.10
  45   1     0.00  -0.03  -0.00     0.00  -0.04  -0.03     0.00  -0.00   0.09
  46   6     0.00  -0.02  -0.11     0.00  -0.02  -0.13     0.00  -0.00   0.10
  47   1     0.01  -0.03  -0.09     0.01  -0.03  -0.06     0.00  -0.00   0.10
  48   6     0.00  -0.02  -0.13     0.01  -0.01  -0.10     0.00  -0.00   0.11
  49   6    -0.00  -0.02  -0.11    -0.01  -0.02  -0.20     0.00  -0.00   0.10
  50   6    -0.00  -0.01  -0.14    -0.00   0.01  -0.07     0.00  -0.00   0.11
  51   1     0.01  -0.02  -0.13     0.02  -0.01  -0.07     0.00  -0.00   0.11
  52   6     0.00  -0.01  -0.12     0.00   0.02   0.01     0.00  -0.00   0.11
  53   1    -0.00  -0.01  -0.14    -0.01   0.01  -0.08     0.00  -0.00   0.11
  54   6    -0.00   0.00  -0.11     0.00   0.02   0.06     0.00  -0.00   0.12
  55   1     0.01  -0.01  -0.11     0.01   0.02   0.01     0.00  -0.00   0.12
  56   6     0.00   0.00  -0.06     0.00   0.03   0.08     0.00  -0.00   0.12
  57   6    -0.01   0.00  -0.14    -0.01   0.02   0.08     0.00  -0.00   0.11
  58   6     0.00   0.01  -0.04     0.00   0.03   0.08     0.00  -0.00   0.12
  59   1     0.01   0.00  -0.05     0.01   0.03   0.08     0.00  -0.00   0.12
  60   6     0.00   0.01   0.02    -0.00   0.01   0.04     0.00  -0.01   0.13
  61   1    -0.00   0.01  -0.05     0.01   0.02   0.09     0.00  -0.00   0.12
  62   6    -0.02   0.04   0.09     0.01  -0.04  -0.04    -0.00  -0.00   0.13
  63   6     0.04   0.00   0.09    -0.06   0.01  -0.04     0.00  -0.01   0.13
  64   6     0.01   0.03   0.10    -0.03  -0.03  -0.05     0.00  -0.01   0.13
  65   6     0.04  -0.00   0.04    -0.04   0.03   0.01     0.00  -0.01   0.13
  66   6    -0.03   0.03   0.05     0.04  -0.02   0.00    -0.00  -0.01   0.13
  67   1    -0.01   0.04   0.10     0.00  -0.04  -0.05    -0.00  -0.01   0.13
  68   1     0.06  -0.01   0.10    -0.08   0.02  -0.05     0.00  -0.01   0.13
  69   1    -0.00   0.03   0.10    -0.02  -0.02  -0.05    -0.00  -0.00   0.13
  70   6     0.07  -0.02   0.01    -0.08   0.06   0.03     0.00  -0.01   0.13
  71   6    -0.07   0.03   0.04     0.08  -0.01   0.02    -0.00  -0.01   0.13
  72   6    -0.05   0.03   0.06     0.07  -0.02  -0.00    -0.00  -0.00   0.13
  73   1    -0.04   0.06   0.11     0.04  -0.06  -0.06    -0.00  -0.00   0.13
  74   1     0.05  -0.00   0.09    -0.08   0.02  -0.05     0.00  -0.01   0.13
  75   1     0.02   0.04   0.13    -0.04  -0.05  -0.08     0.00  -0.00   0.14
  76   1     0.10  -0.03   0.03    -0.10   0.06   0.02     0.01  -0.01   0.13
  77   1     0.07  -0.03  -0.01    -0.07   0.07   0.06     0.00  -0.01   0.13
  78   1     0.07  -0.02   0.01    -0.09   0.07   0.04     0.00  -0.01   0.13
  79   1    -0.04   0.03   0.07     0.06  -0.03  -0.01    -0.00  -0.00   0.13
  80   1    -0.06   0.04   0.07     0.08  -0.04  -0.01    -0.00  -0.00   0.13
  81   1    -0.06   0.02   0.05     0.08  -0.01   0.01    -0.00  -0.01   0.13
  82   1    -0.08   0.02   0.01     0.08  -0.01   0.05    -0.00  -0.01   0.13
  83   1    -0.10   0.03   0.06     0.10  -0.02   0.00    -0.01  -0.01   0.13
  84   1    -0.07   0.03   0.03     0.08  -0.01   0.03    -0.00  -0.01   0.13
  85   1    -0.01   0.01   0.14    -0.01   0.02  -0.09     0.00  -0.00   0.08
  86   1    -0.01  -0.01   0.15    -0.01   0.03  -0.09     0.00  -0.00   0.08
  87   1    -0.00  -0.02   0.14    -0.01   0.05  -0.09     0.00  -0.00   0.08
  88   1    -0.00  -0.03   0.10    -0.02  -0.04   0.23     0.00  -0.00   0.09
  89   1    -0.01  -0.03   0.10    -0.00  -0.07   0.21     0.00  -0.00   0.09
  90   1    -0.00  -0.03   0.10    -0.03   0.02   0.22     0.00  -0.00   0.09
  91   1    -0.00  -0.02  -0.11    -0.03   0.03  -0.21     0.00  -0.00   0.10
  92   1    -0.00  -0.03  -0.11    -0.01  -0.02  -0.23     0.00  -0.00   0.10
  93   1    -0.01  -0.02  -0.11    -0.00  -0.05  -0.22     0.00  -0.00   0.10
  94   1    -0.00  -0.01  -0.14    -0.01   0.04   0.09     0.00  -0.00   0.11
  95   1    -0.01   0.02  -0.14    -0.01   0.01   0.09     0.00  -0.00   0.11
  96   1    -0.01  -0.00  -0.16    -0.01   0.02   0.09     0.00  -0.00   0.11
                    13                     14                     15
[...]
  51   1    -0.00   0.00  -0.05     0.05  -0.00  -0.00    -0.00   0.00   0.00
  52   6     0.00   0.00  -0.02     0.02  -0.00  -0.00    -0.00   0.00  -0.00
  53   1     0.00  -0.01   0.19     0.04   0.00   0.00    -0.00   0.00  -0.00
  54   6    -0.00  -0.00   0.01     0.00   0.01   0.00    -0.00  -0.00  -0.00
  55   1     0.00  -0.00   0.16    -0.07  -0.00   0.00     0.00  -0.00  -0.00
  56   6    -0.00  -0.00  -0.01    -0.00  -0.00  -0.00     0.00   0.00   0.00
  57   6     0.00   0.00  -0.00     0.01  -0.02  -0.00     0.00   0.00  -0.09
  58   6    -0.00   0.00   0.01    -0.01   0.00  -0.00    -0.00  -0.00   0.00
  59   1     0.00  -0.00   0.00     0.02  -0.01   0.00    -0.00  -0.00  -0.00
  60   6     0.00   0.00  -0.00     0.00  -0.00   0.00     0.00  -0.00   0.00
  61   1    -0.00   0.01  -0.07     0.03  -0.00   0.00     0.00   0.00  -0.00
  62   6     0.00   0.00   0.00    -0.00  -0.00  -0.00     0.00  -0.00   0.00
  63   6     0.00  -0.00   0.00     0.00  -0.00   0.00    -0.00  -0.00  -0.00
  64   6    -0.00   0.00  -0.00     0.00  -0.00   0.00    -0.00  -0.00   0.00
  65   6     0.00  -0.00  -0.00    -0.00   0.00  -0.00    -0.00   0.00  -0.00
  66   6    -0.00  -0.00  -0.00     0.00  -0.00  -0.00    -0.00   0.00   0.00
  67   1    -0.00   0.00  -0.00     0.01   0.00   0.01     0.00   0.00  -0.00
  68   1     0.00  -0.00   0.01    -0.00   0.00  -0.00     0.00   0.00  -0.00
  69   1     0.00  -0.00   0.00    -0.01   0.00  -0.00     0.00   0.00  -0.00
  70   6     0.00  -0.00  -0.00    -0.00  -0.00   0.00    -0.00   0.00  -0.00
  71   6    -0.00  -0.00  -0.00     0.00  -0.00   0.00    -0.00   0.00  -0.00
  72   6    -0.00   0.00   0.00     0.00  -0.00  -0.00     0.00  -0.00   0.00
  73   1     0.01  -0.00  -0.00     0.01   0.00  -0.01    -0.00   0.00  -0.00
  74   1     0.00  -0.00   0.00    -0.00   0.00  -0.00     0.00   0.00   0.00
  75   1    -0.00  -0.00  -0.01     0.00   0.00  -0.01     0.00  -0.00  -0.00
  76   1    -0.00   0.00  -0.00    -0.00   0.00  -0.00     0.00  -0.00  -0.00
  77   1     0.00   0.00   0.01     0.01   0.00  -0.00     0.00  -0.00   0.00
  78   1    -0.00   0.00  -0.00     0.01  -0.00  -0.00    -0.00  -0.00   0.00
  79   1     0.00  -0.00  -0.00    -0.01   0.00  -0.00     0.01   0.01  -0.03
  80   1     0.00  -0.01  -0.00    -0.01  -0.00   0.01    -0.03  -0.00  -0.02
  81   1     0.00   0.01  -0.00     0.00   0.01  -0.00    -0.01   0.01   0.00
  82   1    -0.00  -0.00   0.01     0.00  -0.00   0.01     0.02  -0.01  -0.00
  83   1     0.01   0.00  -0.01    -0.00   0.02  -0.00     0.01   0.00   0.01
  84   1     0.00  -0.00   0.00    -0.01   0.00  -0.01     0.00   0.01  -0.00
  85   1    -0.00  -0.01  -0.00    -0.15   0.01  -0.09    -0.00  -0.00   0.01
  86   1    -0.00  -0.00  -0.01     0.09   0.13   0.01    -0.00   0.00  -0.00
  87   1     0.00   0.01  -0.00    -0.16   0.01   0.10     0.00   0.00   0.01
  88   1     0.00  -0.00   0.01     0.12   0.30   0.01    -0.00   0.00   0.00
  89   1    -0.00  -0.02   0.01    -0.31  -0.05   0.19    -0.00  -0.00  -0.00
  90   1     0.00   0.01   0.01    -0.31  -0.04  -0.19     0.00   0.00  -0.00
  91   1     0.00   0.02  -0.01    -0.31  -0.05   0.19    -0.01  -0.01  -0.02
  92   1     0.00   0.00  -0.01     0.12   0.30   0.01    -0.00   0.00   0.00
  93   1    -0.00  -0.02  -0.01    -0.31  -0.04  -0.19     0.01   0.01  -0.02
  94   1     0.00   0.01   0.00    -0.15   0.01  -0.10    -0.39  -0.22   0.57
  95   1    -0.00  -0.01   0.00    -0.16   0.01   0.10     0.36   0.18   0.55
  96   1    -0.00  -0.00   0.01     0.09   0.13   0.01     0.02  -0.01  -0.02
                   277                    278                    279
                     A                      A                      A
 Frequencies --  1546.3950              1618.3360              3078.9715
 Red. masses --     1.4097                 1.0981                 1.0416
 IR Inten    --     1.2174                 7.0068                44.9966
 Raman Activ --    48.5049                13.8552               884.1595
 Depolar (P) --     0.0000                 0.0000                 0.0000
 Depolar (U) --     0.0000                 0.0000                 0.0000
  Atom AN      X      Y      Z        X      Y      Z        X      Y      Z
   1   1    -0.01   0.01   0.00    -0.00  -0.00  -0.00     0.00  -0.00   0.00
   2   6     0.00  -0.00  -0.00     0.00   0.00  -0.00    -0.00  -0.00  -0.00
   3   6     0.00  -0.00   0.00     0.00  -0.00   0.00     0.00  -0.00  -0.00
   4   6     0.00  -0.00  -0.00     0.00  -0.00  -0.00     0.00   0.00  -0.00
   5   6    -0.00   0.00  -0.00    -0.00   0.00   0.00    -0.00  -0.00  -0.00
   6   6    -0.00   0.00   0.00    -0.00   0.00   0.00     0.00  -0.00   0.00
   7   6    -0.00   0.00   0.00    -0.00   0.00  -0.00    -0.00   0.00  -0.00
   8   1    -0.00   0.00  -0.00     0.00   0.00  -0.00     0.00   0.00   0.00
   9   6     0.01   0.00  -0.00     0.00   0.00   0.00     0.00   0.00   0.00
  10   6     0.00   0.00   0.00    -0.00   0.00   0.00     0.00   0.00  -0.00
  11   1    -0.00  -0.00   0.00     0.00   0.00   0.00     0.00  -0.00  -0.00
  12   1     0.00  -0.00  -0.00     0.00  -0.00  -0.00     0.00   0.00   0.00
  13   1    -0.01   0.00   0.00     0.00  -0.00   0.00     0.00   0.00   0.00
  14   1    -0.00   0.00  -0.00    -0.00  -0.00  -0.00    -0.00  -0.00   0.00
  15   6    -0.00   0.00   0.00    -0.00   0.00   0.00     0.00   0.00  -0.00
  16   6    -0.00   0.00  -0.00    -0.00   0.00   0.00     0.00   0.00  -0.00
  17   1    -0.00  -0.00  -0.01     0.00   0.00   0.00    -0.00  -0.00   0.00
  18   1    -0.01  -0.00  -0.00    -0.00  -0.00  -0.00     0.00  -0.00  -0.00
  19   1    -0.01  -0.01   0.00     0.00  -0.00  -0.00    -0.00   0.00  -0.00
  20   1     0.00   0.00   0.00    -0.00  -0.00  -0.00    -0.00  -0.00   0.00
  21   1    -0.00  -0.00   0.01     0.00  -0.00  -0.00     0.00   0.00   0.00
  22   1    -0.00  -0.00   0.01     0.00   0.00   0.00     0.00  -0.00  -0.00
  23   1    -0.01  -0.02   0.01    -0.00  -0.00  -0.00     0.00  -0.00  -0.00
  24   1    -0.01   0.00   0.02    -0.00  -0.00   0.00    -0.00  -0.00  -0.00
  25   1    -0.02  -0.01   0.01     0.00  -0.00  -0.00    -0.00   0.00  -0.00
  26   6    -0.00   0.00  -0.00    -0.00  -0.00  -0.00    -0.00  -0.00  -0.00
  27   1     0.00  -0.00  -0.00     0.00  -0.00  -0.00    -0.00  -0.01   0.00
  28   6     0.00  -0.00  -0.00     0.00   0.00   0.00    -0.00   0.00   0.00
  29   1     0.00  -0.00   0.00     0.00  -0.00   0.00     0.00   0.00   0.00
  30   6    -0.00  -0.00  -0.00     0.00  -0.00  -0.00     0.00  -0.00  -0.00
  31   6    -0.00   0.00   0.00     0.00  -0.00  -0.00    -0.01  -0.02   0.00
  32   6    -0.00  -0.00  -0.00    -0.00  -0.00  -0.00    -0.00   0.00   0.00
  33   1    -0.00  -0.00   0.00    -0.00  -0.00  -0.00    -0.00   0.01   0.00
  34   6    -0.00  -0.00   0.00     0.00  -0.00  -0.00     0.00   0.00   0.00
  35   1     0.01   0.00  -0.00     0.00   0.00  -0.00     0.00  -0.01  -0.00
  36   6     0.00   0.00   0.00     0.00   0.00   0.00     0.00  -0.00  -0.00
  37   1     0.00   0.00   0.00     0.00   0.00  -0.00    -0.00   0.00   0.00
  38   6    -0.00  -0.00  -0.00     0.00  -0.00  -0.00    -0.00  -0.00  -0.00
  39   6    -0.00   0.00   0.00     0.00  -0.00  -0.00     0.00   0.00   0.00
  40   6    -0.00  -0.00  -0.00    -0.00  -0.00  -0.00     0.00  -0.00  -0.00
  41   1    -0.00  -0.00  -0.00    -0.00  -0.00  -0.00    -0.00   0.00   0.00
  42   6     0.00  -0.00   0.00     0.00   0.00   0.00     0.00  -0.00  -0.00
  43   1     0.01   0.00   0.00     0.00   0.00  -0.00    -0.00   0.00   0.00
  44   6     0.00   0.00   0.00     0.00   0.00   0.00    -0.00   0.00   0.00
  45   1     0.00   0.00  -0.00    -0.00   0.00   0.00    -0.00   0.00   0.00
  46   6     0.00  -0.00  -0.00    -0.00  -0.00  -0.00     0.00  -0.00  -0.00
  47   1    -0.01  -0.00  -0.00    -0.00  -0.00  -0.00     0.00  -0.00  -0.00
  48   6    -0.01   0.00   0.00    -0.00  -0.00   0.00     0.00  -0.00  -0.00
  49   6    -0.00   0.01   0.00    -0.00   0.00  -0.00     0.00   0.00   0.00
  50   6    -0.00  -0.00   0.00     0.00   0.00  -0.00     0.00  -0.00  -0.00
  51   1     0.02   0.00  -0.00     0.00   0.00  -0.00    -0.00   0.00   0.00
  52   6     0.01   0.00   0.00     0.00   0.00   0.00    -0.00   0.00   0.00
  53   1     0.01   0.00   0.00    -0.00   0.00  -0.00    -0.00   0.03   0.00
  54   6     0.01  -0.01  -0.00    -0.00  -0.00   0.00     0.00  -0.00  -0.00
  55   1    -0.02   0.00  -0.00    -0.00   0.00  -0.00     0.00  -0.01  -0.00
  56   6    -0.02   0.00   0.00    -0.00   0.00   0.00     0.00   0.00   0.00
  57   6     0.00   0.01  -0.00     0.00   0.00   0.00     0.03   0.04   0.00
  58   6    -0.00   0.01  -0.00     0.00   0.00  -0.00    -0.00  -0.00  -0.00
  59   1     0.04  -0.01   0.00     0.01  -0.00  -0.00    -0.00  -0.01  -0.00
  60   6     0.03  -0.02   0.01     0.01  -0.00   0.01    -0.00  -0.00  -0.00
  61   1     0.02   0.00   0.01    -0.01   0.00   0.00     0.00   0.03   0.00
  62   6     0.02  -0.04  -0.01    -0.03  -0.03  -0.01    -0.00   0.00  -0.00
  63   6     0.06  -0.04   0.03     0.01   0.01   0.03    -0.00  -0.00  -0.00
  64   6    -0.02   0.02  -0.01    -0.02   0.05  -0.02     0.00  -0.00   0.00
  65   6    -0.06   0.02  -0.04    -0.00   0.00  -0.00    -0.00   0.00   0.00
  66   6    -0.01   0.02  -0.01    -0.02  -0.00  -0.01    -0.00   0.00  -0.00
  67   1    -0.06   0.14   0.04     0.25   0.11   0.26    -0.01  -0.01   0.02
  68   1    -0.11   0.13  -0.06    -0.08  -0.21  -0.11     0.00   0.00  -0.00
  69   1     0.02  -0.02   0.01     0.28  -0.28   0.03     0.02   0.01  -0.02
  70   6     0.08   0.02   0.08     0.00   0.01  -0.00    -0.00   0.00   0.00
  71   6    -0.02  -0.02   0.06    -0.01  -0.00  -0.01     0.00   0.00   0.00
  72   6     0.02   0.04   0.00    -0.02   0.01  -0.01    -0.00  -0.00   0.00
  73   1    -0.04   0.15   0.03     0.25   0.18  -0.22     0.02   0.00   0.03
  74   1    -0.20   0.09  -0.05     0.11   0.02  -0.23     0.01   0.02   0.01
  75   1    -0.01   0.03  -0.02    -0.15  -0.21   0.27    -0.03   0.02   0.00
  76   1    -0.34  -0.13  -0.16     0.00  -0.06   0.01     0.00  -0.00  -0.00
  77   1    -0.21  -0.25  -0.20    -0.03  -0.01   0.04    -0.00   0.00  -0.00
  78   1    -0.17   0.10  -0.41    -0.00  -0.00  -0.04    -0.00  -0.00   0.00
  79   1    -0.07  -0.16  -0.09     0.25  -0.10   0.04     0.00   0.00  -0.01
  80   1    -0.01  -0.17   0.07     0.05   0.13  -0.11     0.00   0.00   0.00
  81   1    -0.11  -0.13   0.00    -0.01  -0.10   0.18    -0.00   0.00   0.00
  82   1     0.00   0.09  -0.24     0.10   0.17   0.01    -0.00   0.00   0.00
  83   1     0.18   0.12  -0.16    -0.10  -0.10   0.11    -0.00  -0.00  -0.00
  84   1     0.02  -0.04  -0.25     0.22  -0.04   0.07    -0.00  -0.00   0.00
  85   1     0.00  -0.01  -0.00    -0.00   0.00  -0.00     0.13   0.08  -0.21
  86   1    -0.00  -0.00  -0.00     0.00   0.00   0.00    -0.11   0.05   0.00
  87   1     0.00  -0.01   0.00    -0.00  -0.00   0.00     0.13   0.06   0.19
  88   1    -0.00  -0.01   0.00     0.00   0.01   0.00     0.02  -0.00  -0.00
  89   1     0.00  -0.01   0.00    -0.01  -0.00   0.00    -0.02  -0.01  -0.03
  90   1     0.00  -0.01  -0.00    -0.01  -0.00  -0.00    -0.02  -0.01   0.03
  91   1     0.00  -0.02   0.01     0.00   0.00  -0.00    -0.01  -0.01  -0.02
  92   1    -0.01  -0.01  -0.00    -0.00  -0.00   0.00     0.01  -0.00  -0.00
  93   1     0.00  -0.02  -0.01     0.00   0.00   0.00    -0.01  -0.01   0.02
  94   1     0.00  -0.05  -0.02    -0.00   0.00  -0.00    -0.31  -0.18   0.48
  95   1    -0.01  -0.04   0.02     0.00  -0.00   0.00    -0.33  -0.16  -0.52
  96   1    -0.02  -0.03   0.01     0.00   0.00  -0.01     0.26  -0.14  -0.00
                   280                    281                    282
                     A                      A                      A
 Frequencies --  3184.4482              1607.1934              1349.2824
 Red. masses --     1.0965                 1.0597                 1.8900
 IR Inten    --     0.0651                13.8938                 1.1050
 Raman Activ --   153.6505                83.6248                14.1725
 Depolar (P) --     0.0000                 0.0000                 0.0000
 Depolar (U) --     0.0000                 0.0000                 0.0000
  Atom AN      X      Y      Z        X      Y      Z        X      Y      Z
   1   1     0.00  -0.00   0.00     0.01   0.03   0.01     0.00  -0.00  -0.00
   2   6    -0.00   0.00  -0.00     0.00  -0.00   0.00    -0.00  -0.00   0.00
   3   6    -0.00   0.00   0.00    -0.01   0.01   0.03    -0.00  -0.00   0.00
   4   6    -0.00  -0.00   0.00    -0.01   0.00   0.00     0.00  -0.00  -0.00
   5   6     0.00  -0.00   0.00     0.02   0.02   0.00    -0.00   0.00  -0.00
   6   6     0.00   0.00  -0.00    -0.00  -0.00   0.00    -0.00  -0.00   0.00
   7   6    -0.00   0.00   0.00     0.03   0.00   0.01     0.00   0.00  -0.00
   8   1    -0.00  -0.00  -0.00     0.19   0.03  -0.18     0.00  -0.00  -0.00
   9   6     0.00  -0.00  -0.00     0.00  -0.00  -0.00     0.00   0.00   0.00
  10   6     0.00  -0.00   0.00    -0.00  -0.01   0.00     0.00  -0.00   0.00
  11   1     0.00  -0.00  -0.00    -0.16  -0.14  -0.12    -0.00  -0.00   0.00
  12   1    -0.00  -0.00  -0.00    -0.20   0.14  -0.01     0.00   0.00  -0.00
  13   1    -0.00  -0.00  -0.00    -0.02   0.01  -0.02    -0.00  -0.00   0.00
  14   1     0.00   0.00  -0.00    -0.08  -0.15  -0.18    -0.00   0.00   0.00
  15   6    -0.00  -0.01   0.00     0.00  -0.00  -0.00    -0.00   0.00  -0.00
  16   6     0.00  -0.00  -0.00     0.02   0.04  -0.01    -0.00  -0.00  -0.00
  17   1    -0.00  -0.00   0.00    -0.01   0.01   0.01    -0.00  -0.00  -0.00
  18   1    -0.01   0.01   0.00     0.02   0.01  -0.01    -0.00  -0.00  -0.00
  19   1    -0.00   0.00  -0.00     0.01   0.01  -0.00     0.00   0.00   0.00
  20   1    -0.00  -0.00   0.00     0.19  -0.49   0.03     0.00   0.00   0.00
  21   1     0.00   0.00   0.00    -0.15   0.22  -0.22    -0.00   0.00  -0.00
  22   1    -0.00   0.00   0.00    -0.41  -0.32   0.27     0.00   0.00   0.00
  23   1    -0.00   0.00   0.00     0.00  -0.00   0.02    -0.00  -0.00  -0.00
  24   1     0.00   0.00   0.00    -0.01   0.01  -0.02     0.00   0.00  -0.00
  25   1    -0.00   0.00  -0.00     0.00   0.03   0.01     0.00  -0.00  -0.00
  26   6     0.00   0.00   0.00    -0.00   0.00   0.00    -0.00   0.00   0.00
  27   1     0.01   0.07  -0.00    -0.01   0.00  -0.01    -0.00   0.00   0.00
  28   6     0.00   0.00   0.00     0.00  -0.00  -0.00     0.00  -0.00  -0.00
  29   1    -0.00  -0.00   0.00    -0.00   0.00  -0.00    -0.00   0.00  -0.00
  30   6     0.00   0.00   0.00    -0.00   0.00   0.00    -0.00   0.00   0.00
  31   6     0.03  -0.01  -0.00    -0.00   0.00  -0.00    -0.00   0.00   0.00
  32   6    -0.00   0.01   0.00     0.00   0.00  -0.00     0.00  -0.00  -0.00
  33   1    -0.00  -0.02  -0.00     0.01   0.00   0.00    -0.00   0.00  -0.00
  34   6    -0.00   0.00   0.00     0.00  -0.00  -0.00     0.00  -0.00  -0.00
  35   1     0.00  -0.07  -0.00     0.00  -0.00   0.00    -0.00  -0.00  -0.00
  36   6     0.00   0.00   0.00    -0.00   0.00   0.00    -0.00   0.00   0.00
  37   1     0.00  -0.02  -0.00    -0.00  -0.00  -0.00    -0.00  -0.00  -0.00
  38   6     0.00   0.00   0.00     0.00  -0.00  -0.00     0.00  -0.00  -0.00
  39   6     0.05  -0.00  -0.00     0.00  -0.00   0.00     0.00   0.00   0.00
  40   6    -0.01   0.03   0.00    -0.00  -0.00  -0.00    -0.00  -0.00  -0.00
  41   1     0.00  -0.01  -0.00    -0.00  -0.00  -0.00     0.00  -0.00  -0.00
  42   6     0.00  -0.02  -0.00     0.00   0.00   0.00     0.00   0.00   0.00
  43   1     0.08  -0.29  -0.01    -0.00  -0.00  -0.00    -0.01  -0.00  -0.00
  44   6    -0.00   0.00   0.00     0.00   0.00   0.00     0.00   0.00   0.00
  45   1    -0.07   0.24   0.01    -0.00   0.00   0.00     0.00   0.00  -0.00
  46   6    -0.00  -0.00  -0.00    -0.00   0.00   0.00     0.00  -0.00  -0.00
  47   1     0.01  -0.02  -0.00    -0.00  -0.00  -0.00    -0.01  -0.00  -0.00
  48   6     0.00  -0.00  -0.00    -0.00  -0.00  -0.00    -0.00   0.00   0.00
  49   6    -0.04   0.00   0.00     0.00  -0.00  -0.00    -0.00   0.00   0.00
  50   6     0.00  -0.01  -0.00     0.00   0.00   0.00    -0.00   0.00   0.00
  51   1    -0.00   0.00   0.00     0.00  -0.00  -0.00    -0.01  -0.00  -0.00
  52   6    -0.00  -0.00  -0.00     0.00   0.00  -0.00     0.00  -0.00  -0.00
  53   1    -0.01   0.09   0.00    -0.00   0.00   0.00    -0.01   0.00   0.00
  54   6    -0.00  -0.00  -0.00    -0.00   0.00   0.00     0.00  -0.00   0.00
  55   1     0.00   0.02   0.00    -0.00  -0.00   0.00     0.01  -0.00  -0.00
  56   6    -0.00   0.00  -0.00    -0.00  -0.00  -0.00    -0.01  -0.01   0.00
  57   6    -0.04   0.01   0.00     0.00  -0.00  -0.00    -0.00   0.00  -0.00
  58   6     0.00   0.00   0.00     0.00   0.00  -0.00    -0.00   0.00  -0.01
  59   1    -0.00  -0.00  -0.00     0.00  -0.00   0.00    -0.01  -0.01  -0.01
  60   6     0.00   0.00   0.00     0.00  -0.00  -0.00    -0.02  -0.00  -0.01
  61   1    -0.00  -0.03  -0.00     0.00  -0.00   0.00     0.08  -0.01   0.01
  62   6     0.00  -0.00   0.00    -0.00  -0.00  -0.00    -0.03  -0.00   0.07
  63   6    -0.00  -0.00  -0.00     0.00  -0.00  -0.00     0.01  -0.02   0.04
  64   6     0.00  -0.00  -0.00     0.00   0.00   0.00     0.00   0.00  -0.08
  65   6    -0.00  -0.00  -0.00    -0.00   0.00   0.00    -0.02   0.01   0.05
  66   6    -0.00   0.00   0.00    -0.00   0.00   0.00     0.14  -0.06  -0.17
  67   1     0.00   0.00  -0.00     0.00   0.00   0.00    -0.26   0.18   0.00
  68   1    -0.00   0.00   0.00     0.00   0.00   0.00     0.30  -0.12   0.26
  69   1     0.00   0.00  -0.00     0.00  -0.00  -0.00    -0.05   0.13  -0.05
  70   6     0.00  -0.00   0.00    -0.00  -0.00   0.00     0.01   0.01  -0.02
  71   6     0.00  -0.00   0.00     0.00  -0.00  -0.00    -0.03   0.04   0.04
  72   6    -0.00   0.00   0.00    -0.00  -0.00   0.00    -0.05   0.02   0.07
  73   1    -0.00  -0.00  -0.00     0.00   0.00  -0.00     0.11   0.04  -0.04
  74   1     0.00   0.00   0.00    -0.00   0.00   0.00    -0.34   0.19  -0.24
  75   1    -0.00   0.00   0.00    -0.00  -0.00   0.00     0.10   0.13   0.20
  76   1    -0.00   0.00   0.01    -0.00   0.00  -0.00    -0.05  -0.02  -0.05
  77   1    -0.02   0.03  -0.01     0.00   0.00  -0.01    -0.05  -0.03   0.01
  78   1     0.00   0.01  -0.00     0.00  -0.00   0.00    -0.00   0.02   0.05
  79   1     0.00   0.00  -0.00     0.00   0.00   0.00     0.02  -0.28  -0.02
  80   1    -0.00   0.00   0.00     0.00  -0.00  -0.00     0.12  -0.00  -0.15
  81   1     0.00  -0.00  -0.00    -0.00  -0.00  -0.00     0.09   0.27  -0.10
  82   1    -0.00   0.00   0.00    -0.00  -0.00   0.00    -0.10  -0.12   0.20
  83   1    -0.00  -0.00  -0.00    -0.00   0.00   0.00    -0.02  -0.14   0.10
  84   1     0.00   0.00   0.00    -0.00   0.00   0.00     0.08   0.00  -0.04
  85   1    -0.03  -0.03   0.07     0.04  -0.03   0.01     0.00   0.00   0.00
  86   1    -0.32   0.17   0.01    -0.01  -0.02   0.04     0.00   0.00   0.00
  87   1    -0.04  -0.02  -0.07     0.00   0.01  -0.01     0.00   0.00  -0.00
  88   1    -0.50   0.14   0.00     0.01   0.02  -0.00    -0.00  -0.00  -0.00
  89   1    -0.05  -0.05  -0.11    -0.02  -0.00   0.01     0.00  -0.00   0.00
  90   1    -0.05  -0.05   0.10    -0.02  -0.00  -0.01     0.00  -0.00  -0.00
  91   1     0.04   0.04   0.08    -0.00  -0.00   0.00     0.00  -0.00  -0.00
  92   1     0.39  -0.11  -0.00     0.00   0.00   0.00     0.00   0.00   0.00
  93   1     0.04   0.04  -0.08    -0.00  -0.00  -0.00     0.00  -0.00   0.00
  94   1     0.05   0.03  -0.08    -0.00   0.00  -0.00     0.00  -0.00   0.00
  95   1     0.04   0.03   0.08    -0.00   0.00   0.00     0.00  -0.00  -0.00
  96   1     0.36  -0.20  -0.01     0.00   0.00   0.00    -0.00   0.00   0.00

 -------------------
 - Thermochemistry -
 -------------------
