 Entering Gaussian System, Link 0=g16
 Input=cyclic_gamma-VIS.inp
 Output=cyclic_gamma-VIS.log
 Initial command:
 /home/gadres/g16/l1.exe "/scratch/gadres/Gau-217549.inp" -scrdir="/scratch/gadres/"
 Entering Link 1 = /home/gadres/g16/l1.exe PID=    217550.
  
 Copyright (c) 1988,1990,1992,1993,1995,1998,2003,2009,2016,
            Gaussian, Inc.  All Rights Reserved.
  
 This is part of the Gaussian(R) 16 program.  It is based on
 the Gaussian(R) 09 system (copyright 2009, Gaussian, Inc.),
 the Gaussian(R) 03 system (copyright 2003, Gaussian, Inc.),
 the Gaussian(R) 98 system (copyright 1998, Gaussian, Inc.),
 the Gaussian(R) 94 system (copyright 1995, Gaussian, Inc.),
 the Gaussian 92(TM) system (copyright 1992, Gaussian, Inc.),
 the Gaussian 90(TM) system (copyright 1990, Gaussian, Inc.),
 the Gaussian 88(TM) system (copyright 1988, Gaussian, Inc.),
 the Gaussian 86(TM) system (copyright 1986, Carnegie Mellon
 University), and the Gaussian 82(TM) system (copyright 1983,
 Carnegie Mellon University). Gaussian is a federally registered
 trademark of Gaussian, Inc.
  
 This software contains proprietary and confidential information,
 including trade secrets, belonging to Gaussian, Inc.
  
 This software is provided under written license and may be
 used, copied, transmitted, or stored only in accord with that
 written license.
  
 The following legend is applicable only to US Government
 contracts under FAR:
  
                    RESTRICTED RIGHTS LEGEND
  
 Use, reproduction and disclosure by the US Government is
 subject to restrictions as set forth in subparagraphs (a)
 and (c) of the Commercial Computer Software - Restricted
 Rights clause in FAR 52.227-19.
  
 Gaussian, Inc.
 340 Quinnipiac St., Bldg. 40, Wallingford CT 06492
  
  
 ---------------------------------------------------------------
 Warning -- This program may not be used in any manner that
 competes with the business of Gaussian, Inc. or will provide
 assistance to any competitor of Gaussian, Inc.  The licensee
 of this program is prohibited from giving any competitor of
 Gaussian, Inc. access to this program.  By using this program,
 the user acknowledges that Gaussian, Inc. is engaged in the
 business of creating and licensing software in the field of
 computational chemistry and represents and warrants to the
 licensee that it is not a competitor of Gaussian, Inc. and that
 it will not use this program in any manner prohibited above.
 ---------------------------------------------------------------
  

 Cite this work as:
 Gaussian 16, Revision A.03,
 M. J. Frisch, G. W. Trucks, H. B. Schlegel, G. E. Scuseria, 
 M. A. Robb, J. R. Cheeseman, G. Scalmani, V. Barone, 
 G. A. Petersson, H. Nakatsuji, X. Li, M. Caricato, A. V. Marenich, 
 J. Bloino, B. G. Janesko, R. Gomperts, B. Mennucci, H. P. Hratchian, 
 J. V. Ortiz, A. F. Izmaylov, J. L. Sonnenberg, D. Williams-Young, 
 F. Ding, F. Lipparini, F. Egidi, J. Goings, B. Peng, A. Petrone, 
 T. Henderson, D. Ranasinghe, V. G. Zakrzewski, J. Gao, N. Rega, 
 G. Zheng, W. Liang, M. Hada, M. Ehara, K. Toyota, R. Fukuda, 
 J. Hasegawa, M. Ishida, T. Nakajima, Y. Honda, O. Kitao, H. Nakai, 
 T. Vreven, K. Throssell, J. A. Montgomery, Jr., J. E. Peralta, 
 F. Ogliaro, M. J. Bearpark, J. J. Heyd, E. N. Brothers, K. N. Kudin, 
 V. N. Staroverov, T. A. Keith, R. Kobayashi, J. Normand, 
 K. Raghavachari, A. P. Rendell, J. C. Burant, S. S. Iyengar, 
 J. Tomasi, M. Cossi, J. M. Millam, M. Klene, C. Adamo, R. Cammi, 
 J. W. Ochterski, R. L. Martin, K. Morokuma, O. Farkas, 
 J. B. Foresman, and D. J. Fox, Gaussian, Inc., Wallingford CT, 2016.
 
 ******************************************
 Gaussian 16:  ES64L-G16RevA.03 25-Dec-2016
                16-Sep-2020 
 ******************************************
 %nproc=1
 Will use up to    1 processors via shared memory.
 %mem=5GB
 %KJob L401
 kjob at link  401 occurrence number     1
 ----------------------------
 #P B3LYP/6-31+G(d) SP NOSYMM
 ----------------------------
 1/38=1,172=1/1;
 2/12=2,15=1,17=6,18=5,40=1/2;
 3/5=1,6=6,7=11,11=2,25=1,30=1,74=-5/1,2,3;
 4//1;
 5/5=2,38=5/2;
 6/7=2,8=2,9=2,10=2,28=1/1;
 99/5=1,9=1/99;
 Leave Link    1 at Wed Sep 16 22:35:55 2020, MaxMem=   671088640 cpu:               0.0 elap:               0.0
 (Enter /home/gadres/g16/l101.exe)
 -------
 MTA job
 -------
 Symbolic Z-matrix:
 Charge =  0 Multiplicity = 1
 8                    -3.14196   5.12561  -0.3859 
 6                    -4.43009   4.64188  -0.00451 
 6                    -5.11994   4.21258  -1.30357 
 6                    -6.49616   3.62684  -1.00317 
 6                    -6.43975   2.57403   0.11421 
 8                    -5.74244   3.07991   1.23548 
 6                    -4.36763   3.44234   0.95676 
 6                    -3.66457   3.66419   2.3089 
 8                    -5.3194    5.30498  -2.19086 
 8                    -7.0909    3.02703  -2.15392 
 8                    -2.55552   2.78332   2.50344 
 1                    -5.00378   5.452     0.46759 
 1                    -4.49529   3.4433   -1.78214 
 1                    -7.13781   4.4439   -0.64263 
 1                    -7.45153   2.36113   0.47505 
 1                    -3.86931   2.60571   0.45349 
 1                    -4.40607   3.5325    3.10734 
 1                    -3.25651   4.67331   2.37885 
 1                    -4.46924   5.77467  -2.31304 
 1                    -7.07366   3.68842  -2.86644 
 1                    -2.88265   1.85678   2.55391 
 8                    -5.84052   1.40198  -0.37826 
 6                    -6.41323   0.14858  -0.00344 
 6                    -6.60029  -0.63568  -1.30645 
 6                    -7.15825  -2.02557  -1.01373 
 6                    -6.37888  -2.73571   0.10334 
 8                    -6.2458   -1.88874   1.22796 
 6                    -5.52418  -0.66251   0.9543 
 6                    -5.17923  -0.01508   2.3087 
 8                    -7.51654  -0.00029  -2.18801 
 8                    -7.1502   -2.86455  -2.16841 
 8                    -3.77218   0.16084   2.49053 
 1                    -7.39119   0.31664   0.46957 
 1                    -5.61566  -0.73429  -1.78815 
 1                    -8.19111  -1.90366  -0.65626 
 1                    -6.94706  -3.60165   0.45938 
 1                    -4.58164  -0.90485   0.45022 
 1                    -5.59499  -0.64401   3.10622 
 1                    -5.61556   0.98136   2.39143 
 1                    -7.25064   0.93477  -2.3043 
 1                    -7.60675  -2.38313  -2.87918 
 1                    -3.34086  -0.72175   2.54519 
 8                    -5.12558  -3.14183  -0.38639 
 6                    -4.64186  -4.43005  -0.00526 
 6                    -4.21255  -5.11962  -1.30446 
 6                    -3.62684  -6.49593  -1.00433 
 6                    -2.57406  -6.43977   0.11308 
 8                    -3.07993  -5.74267   1.23448 
 6                    -3.44234  -4.3678    0.95605 
 6                    -3.66421  -3.66503   2.30834 
 8                    -5.30492  -5.31886  -2.19182 
 8                    -3.02703  -7.09044  -2.15519 
 8                    -2.78334  -2.55603   2.50314 
 1                    -5.45199  -5.00383   0.4667 
 1                    -3.44324  -4.49489  -1.78286 
 1                    -4.44393  -7.13762  -0.64393 
 1                    -2.36119  -7.45163   0.47372 
 1                    -2.60569  -3.86938   0.4529 
 1                    -3.53255  -4.4067    3.10662 
 1                    -4.67334  -3.25698   2.37834 
 1                    -5.77456  -4.46865  -2.31386 
 1                    -3.68842  -7.07305  -2.86771 
 1                    -1.85681  -2.88317   2.55359 
 8                    -1.40198  -5.84048  -0.37925 
 6                    -0.14859  -6.41328  -0.00452 
 6                     0.63565  -6.60014  -1.30757 
 6                     2.02554  -7.15815  -1.01497 
 6                     2.7357   -6.37895   0.10221 
 8                     1.88876  -6.24605   1.22687 
 6                     0.66251  -5.5244    0.95336 
 6                     0.01509  -5.17969   2.30782 
 8                     0.00024  -7.51627  -2.18926 
 8                     2.8645   -7.14992  -2.16965 
 8                    -0.16086  -3.77268   2.48991 
 1                    -0.31667  -7.39131   0.46832 
 1                     0.73424  -5.61544  -1.78912 
 1                     1.90364  -8.19106  -0.65765 
 1                     3.60165  -6.94718   0.45815 
 1                     0.90484  -4.58176   0.44944 
 1                     0.64404  -5.59559   3.10527 
 1                    -0.98133  -5.61606   2.39049 
 1                    -0.93482  -7.25036  -2.30547 
 1                     2.38307  -7.60636  -2.88049 
 1                     0.72171  -3.34134   2.54463 
 8                     3.14181  -5.12557  -0.38732 
 6                     4.43002  -4.64189  -0.00613 
 6                     5.11959  -4.21238  -1.30527 
 6                     6.49588  -3.6267   -1.00506 
 6                     6.43971  -2.57408   0.11251 
 8                     5.74263  -3.08013   1.23383 
 6                     4.36776  -3.44252   0.95535 
 6                     3.66499  -3.66459   2.3076 
 8                     5.31884  -5.30463  -2.19279 
 8                     7.09039  -3.02672  -2.15584 
 8                     2.55598  -2.78376   2.50253 
 1                     5.00382  -5.45209   0.46571 
 1                     4.49484  -3.44301  -1.78357 
 1                     7.13759  -4.44383  -0.64479 
 1                     7.45157  -2.36125   0.47317 
 1                     3.86933  -2.6058    0.45232 
 1                     4.40666  -3.53304   3.10591 
 1                     3.25696  -4.67373   2.37746 
 1                     4.46865  -5.77428  -2.31488 
 1                     7.073    -3.688    -2.86846 
 1                     2.8831   -1.85724   2.55309 
 8                     5.84041  -1.40193  -0.37965 
 6                     6.41319  -0.1486   -0.00471 
 6                     6.60003   0.63588  -1.30762 
 6                     7.15804   2.02572  -1.01474 
 6                     6.37886   2.73566   0.10258 
 8                     6.24598   1.8885    1.22708 
 6                     5.52432   0.66232   0.95333 
 6                     5.17961   0.01463   2.30767 
 8                     7.51614   0.00065  -2.18944 
 8                     7.1498    2.8649   -2.16927 
 8                     3.77258  -0.16127   2.48974 
 1                     7.39123  -0.31675   0.4681 
 1                     5.61533   0.73458  -1.78913 
 1                     8.19096   1.90374  -0.65747 
 1                     6.94709   3.60155   0.45868 
 1                     4.58168   0.90475   0.44946 
 1                     5.59556   0.64339   3.10523 
 1                     5.61591  -0.98184   2.39012 
 1                     7.25023  -0.93439  -2.30584 
 1                     7.60622   2.38361  -2.88021 
 1                     3.3413    0.72132   2.54461 
 8                     5.12547   3.14185  -0.38685 
 6                     4.6418    4.42999  -0.00543 
 6                     4.21224   5.11977  -1.30444 
 6                     3.62659   6.49603  -1.00399 
 6                     2.57402   6.43969   0.11361 
 8                     3.0801    5.74242   1.23481 
 6                     3.44247   4.36759   0.9561 
 6                     3.6646    3.66461   2.30823 
 8                     5.30445   5.31914  -2.19198 
 8                     3.02656   7.09072  -2.15464 
 8                     2.78374   2.5556    2.50305 
 1                     5.45202   5.00372   0.46647 
 1                     3.44285   4.49511  -1.7828 
 1                     4.44374   7.13767  -0.64365 
 1                     2.36122   7.4515    0.47445 
 1                     2.60572   3.86925   0.45303 
 1                     3.53312   4.40616   3.10665 
 1                     4.67373   3.25653   2.37796 
 1                     5.77407   4.46896  -2.31423 
 1                     3.68781   7.07343  -2.8673 
 1                     1.85723   2.88275   2.55375 
 8                     1.40185   5.84048  -0.3786 
 6                     0.14853   6.41322  -0.00354 
 6                    -0.63596   6.60028  -1.30642 
 6                    -2.02578   7.15826  -1.01346 
 6                    -2.73574   6.37892   0.10374 
 8                    -1.88858   6.24583   1.22822 
 6                    -0.6624    5.52421   0.95436 
 6                    -0.01472   5.17931   2.30866 
 8                    -0.00071   7.51651  -2.1881 
 8                    -2.86496   7.15023  -2.16798 
 8                     0.16128   3.77227   2.4905 
 1                     0.3167    7.39119   0.46941 
 1                    -0.73467   5.61565  -1.78808 
 1                    -1.90379   8.19113  -0.65602 
 1                    -3.60161   6.9471    0.45994 
 1                    -0.90483   4.58165   0.45036 
 1                    -0.64352   5.59508   3.10628 
 1                     0.98172   5.61567   2.3912 
 1                     0.93432   7.25059  -2.30454 
 1                    -2.38367   7.60676  -2.87885 
 1                    -0.72127   3.34091   2.54533 
 
 ITRead=  0  0  0  0  0  0  0  0  0  0  0  0  0  0  0  0  0  0  0  0
 ITRead=  0  0  0  0  0  0  0  0  0  0  0  0  0  0  0  0  0  0  0  0
 ITRead=  0  0  0  0  0  0  0  0  0  0  0  0  0  0  0  0  0  0  0  0
 ITRead=  0  0  0  0  0  0  0  0  0  0  0  0  0  0  0  0  0  0  0  0
 ITRead=  0  0  0  0  0  0  0  0  0  0  0  0  0  0  0  0  0  0  0  0
 ITRead=  0  0  0  0  0  0  0  0  0  0  0  0  0  0  0  0  0  0  0  0
 ITRead=  0  0  0  0  0  0  0  0  0  0  0  0  0  0  0  0  0  0  0  0
 ITRead=  0  0  0  0  0  0  0  0  0  0  0  0  0  0  0  0  0  0  0  0
 ITRead=  0  0  0  0  0  0  0  0
 MicOpt= -1 -1 -1 -1 -1 -1 -1 -1 -1 -1 -1 -1 -1 -1 -1 -1 -1 -1 -1 -1
 MicOpt= -1 -1 -1 -1 -1 -1 -1 -1 -1 -1 -1 -1 -1 -1 -1 -1 -1 -1 -1 -1
 MicOpt= -1 -1 -1 -1 -1 -1 -1 -1 -1 -1 -1 -1 -1 -1 -1 -1 -1 -1 -1 -1
 MicOpt= -1 -1 -1 -1 -1 -1 -1 -1 -1 -1 -1 -1 -1 -1 -1 -1 -1 -1 -1 -1
 MicOpt= -1 -1 -1 -1 -1 -1 -1 -1 -1 -1 -1 -1 -1 -1 -1 -1 -1 -1 -1 -1
 MicOpt= -1 -1 -1 -1 -1 -1 -1 -1 -1 -1 -1 -1 -1 -1 -1 -1 -1 -1 -1 -1
 MicOpt= -1 -1 -1 -1 -1 -1 -1 -1 -1 -1 -1 -1 -1 -1 -1 -1 -1 -1 -1 -1
 MicOpt= -1 -1 -1 -1 -1 -1 -1 -1 -1 -1 -1 -1 -1 -1 -1 -1 -1 -1 -1 -1
 MicOpt= -1 -1 -1 -1 -1 -1 -1 -1
 NAtoms=    168 NQM=      168 NQMF=       0 NMMI=      0 NMMIF=      0
                NMic=       0 NMicF=      0.
                    Isotopes and Nuclear Properties:
 (Nuclear quadrupole moments (NQMom) in fm**2, nuclear magnetic moments (NMagM)
  in nuclear magnetons)

  Atom         1           2           3           4           5           6           7           8           9          10
 IAtWgt=          16          12          12          12          12          16          12          12          16          16
 AtmWgt=  15.9949146  12.0000000  12.0000000  12.0000000  12.0000000  15.9949146  12.0000000  12.0000000  15.9949146  15.9949146
 NucSpn=           0           0           0           0           0           0           0           0           0           0
 AtZEff=  -0.0000000  -0.0000000  -0.0000000  -0.0000000  -0.0000000  -0.0000000  -0.0000000  -0.0000000  -0.0000000  -0.0000000
 NQMom=    0.0000000   0.0000000   0.0000000   0.0000000   0.0000000   0.0000000   0.0000000   0.0000000   0.0000000   0.0000000
 NMagM=    0.0000000   0.0000000   0.0000000   0.0000000   0.0000000   0.0000000   0.0000000   0.0000000   0.0000000   0.0000000
 AtZNuc=   8.0000000   6.0000000   6.0000000   6.0000000   6.0000000   8.0000000   6.0000000   6.0000000   8.0000000   8.0000000

  Atom        11          12          13          14          15          16          17          18          19          20
 IAtWgt=          16           1           1           1           1           1           1           1           1           1
 AtmWgt=  15.9949146   1.0078250   1.0078250   1.0078250   1.0078250   1.0078250   1.0078250   1.0078250   1.0078250   1.0078250
 NucSpn=           0           1           1           1           1           1           1           1           1           1
 AtZEff=  -0.0000000  -0.0000000  -0.0000000  -0.0000000  -0.0000000  -0.0000000  -0.0000000  -0.0000000  -0.0000000  -0.0000000
 NQMom=    0.0000000   0.0000000   0.0000000   0.0000000   0.0000000   0.0000000   0.0000000   0.0000000   0.0000000   0.0000000
 NMagM=    0.0000000   2.7928460   2.7928460   2.7928460   2.7928460   2.7928460   2.7928460   2.7928460   2.7928460   2.7928460
 AtZNuc=   8.0000000   1.0000000   1.0000000   1.0000000   1.0000000   1.0000000   1.0000000   1.0000000   1.0000000   1.0000000

  Atom        21          22          23          24          25          26          27          28          29          30
 IAtWgt=           1          16          12          12          12          12          16          12          12          16
 AtmWgt=   1.0078250  15.9949146  12.0000000  12.0000000  12.0000000  12.0000000  15.9949146  12.0000000  12.0000000  15.9949146
 NucSpn=           1           0           0           0           0           0           0           0           0           0
 AtZEff=  -0.0000000  -0.0000000  -0.0000000  -0.0000000  -0.0000000  -0.0000000  -0.0000000  -0.0000000  -0.0000000  -0.0000000
 NQMom=    0.0000000   0.0000000   0.0000000   0.0000000   0.0000000   0.0000000   0.0000000   0.0000000   0.0000000   0.0000000
 NMagM=    2.7928460   0.0000000   0.0000000   0.0000000   0.0000000   0.0000000   0.0000000   0.0000000   0.0000000   0.0000000
 AtZNuc=   1.0000000   8.0000000   6.0000000   6.0000000   6.0000000   6.0000000   8.0000000   6.0000000   6.0000000   8.0000000

  Atom        31          32          33          34          35          36          37          38          39          40
 IAtWgt=          16          16           1           1           1           1           1           1           1           1
 AtmWgt=  15.9949146  15.9949146   1.0078250   1.0078250   1.0078250   1.0078250   1.0078250   1.0078250   1.0078250   1.0078250
 NucSpn=           0           0           1           1           1           1           1           1           1           1
 AtZEff=  -0.0000000  -0.0000000  -0.0000000  -0.0000000  -0.0000000  -0.0000000  -0.0000000  -0.0000000  -0.0000000  -0.0000000
 NQMom=    0.0000000   0.0000000   0.0000000   0.0000000   0.0000000   0.0000000   0.0000000   0.0000000   0.0000000   0.0000000
 NMagM=    0.0000000   0.0000000   2.7928460   2.7928460   2.7928460   2.7928460   2.7928460   2.7928460   2.7928460   2.7928460
 AtZNuc=   8.0000000   8.0000000   1.0000000   1.0000000   1.0000000   1.0000000   1.0000000   1.0000000   1.0000000   1.0000000

  Atom        41          42          43          44          45          46          47          48          49          50
 IAtWgt=           1           1          16          12          12          12          12          16          12          12
 AtmWgt=   1.0078250   1.0078250  15.9949146  12.0000000  12.0000000  12.0000000  12.0000000  15.9949146  12.0000000  12.0000000
 NucSpn=           1           1           0           0           0           0           0           0           0           0
 AtZEff=  -0.0000000  -0.0000000  -0.0000000  -0.0000000  -0.0000000  -0.0000000  -0.0000000  -0.0000000  -0.0000000  -0.0000000
 NQMom=    0.0000000   0.0000000   0.0000000   0.0000000   0.0000000   0.0000000   0.0000000   0.0000000   0.0000000   0.0000000
 NMagM=    2.7928460   2.7928460   0.0000000   0.0000000   0.0000000   0.0000000   0.0000000   0.0000000   0.0000000   0.0000000
 AtZNuc=   1.0000000   1.0000000   8.0000000   6.0000000   6.0000000   6.0000000   6.0000000   8.0000000   6.0000000   6.0000000

  Atom        51          52          53          54          55          56          57          58          59          60
 IAtWgt=          16          16          16           1           1           1           1           1           1           1
 AtmWgt=  15.9949146  15.9949146  15.9949146   1.0078250   1.0078250   1.0078250   1.0078250   1.0078250   1.0078250   1.0078250
 NucSpn=           0           0           0           1           1           1           1           1           1           1
 AtZEff=  -0.0000000  -0.0000000  -0.0000000  -0.0000000  -0.0000000  -0.0000000  -0.0000000  -0.0000000  -0.0000000  -0.0000000
 NQMom=    0.0000000   0.0000000   0.0000000   0.0000000   0.0000000   0.0000000   0.0000000   0.0000000   0.0000000   0.0000000
 NMagM=    0.0000000   0.0000000   0.0000000   2.7928460   2.7928460   2.7928460   2.7928460   2.7928460   2.7928460   2.7928460
 AtZNuc=   8.0000000   8.0000000   8.0000000   1.0000000   1.0000000   1.0000000   1.0000000   1.0000000   1.0000000   1.0000000

  Atom        61          62          63          64          65          66          67          68          69          70
 IAtWgt=           1           1           1          16          12          12          12          12          16          12
 AtmWgt=   1.0078250   1.0078250   1.0078250  15.9949146  12.0000000  12.0000000  12.0000000  12.0000000  15.9949146  12.0000000
 NucSpn=           1           1           1           0           0           0           0           0           0           0
 AtZEff=  -0.0000000  -0.0000000  -0.0000000  -0.0000000  -0.0000000  -0.0000000  -0.0000000  -0.0000000  -0.0000000  -0.0000000
 NQMom=    0.0000000   0.0000000   0.0000000   0.0000000   0.0000000   0.0000000   0.0000000   0.0000000   0.0000000   0.0000000
 NMagM=    2.7928460   2.7928460   2.7928460   0.0000000   0.0000000   0.0000000   0.0000000   0.0000000   0.0000000   0.0000000
 AtZNuc=   1.0000000   1.0000000   1.0000000   8.0000000   6.0000000   6.0000000   6.0000000   6.0000000   8.0000000   6.0000000

  Atom        71          72          73          74          75          76          77          78          79          80
 IAtWgt=          12          16          16          16           1           1           1           1           1           1
 AtmWgt=  12.0000000  15.9949146  15.9949146  15.9949146   1.0078250   1.0078250   1.0078250   1.0078250   1.0078250   1.0078250
 NucSpn=           0           0           0           0           1           1           1           1           1           1
 AtZEff=  -0.0000000  -0.0000000  -0.0000000  -0.0000000  -0.0000000  -0.0000000  -0.0000000  -0.0000000  -0.0000000  -0.0000000
 NQMom=    0.0000000   0.0000000   0.0000000   0.0000000   0.0000000   0.0000000   0.0000000   0.0000000   0.0000000   0.0000000
 NMagM=    0.0000000   0.0000000   0.0000000   0.0000000   2.7928460   2.7928460   2.7928460   2.7928460   2.7928460   2.7928460
 AtZNuc=   6.0000000   8.0000000   8.0000000   8.0000000   1.0000000   1.0000000   1.0000000   1.0000000   1.0000000   1.0000000

  Atom        81          82          83          84          85          86          87          88          89          90
 IAtWgt=           1           1           1           1          16          12          12          12          12          16
 AtmWgt=   1.0078250   1.0078250   1.0078250   1.0078250  15.9949146  12.0000000  12.0000000  12.0000000  12.0000000  15.9949146
 NucSpn=           1           1           1           1           0           0           0           0           0           0
 AtZEff=  -0.0000000  -0.0000000  -0.0000000  -0.0000000  -0.0000000  -0.0000000  -0.0000000  -0.0000000  -0.0000000  -0.0000000
 NQMom=    0.0000000   0.0000000   0.0000000   0.0000000   0.0000000   0.0000000   0.0000000   0.0000000   0.0000000   0.0000000
 NMagM=    2.7928460   2.7928460   2.7928460   2.7928460   0.0000000   0.0000000   0.0000000   0.0000000   0.0000000   0.0000000
 AtZNuc=   1.0000000   1.0000000   1.0000000   1.0000000   8.0000000   6.0000000   6.0000000   6.0000000   6.0000000   8.0000000

  Atom        91          92          93          94          95          96          97          98          99         100
 IAtWgt=          12          12          16          16          16           1           1           1           1           1
 AtmWgt=  12.0000000  12.0000000  15.9949146  15.9949146  15.9949146   1.0078250   1.0078250   1.0078250   1.0078250   1.0078250
 NucSpn=           0           0           0           0           0           1           1           1           1           1
 AtZEff=  -0.0000000  -0.0000000  -0.0000000  -0.0000000  -0.0000000  -0.0000000  -0.0000000  -0.0000000  -0.0000000  -0.0000000
 NQMom=    0.0000000   0.0000000   0.0000000   0.0000000   0.0000000   0.0000000   0.0000000   0.0000000   0.0000000   0.0000000
 NMagM=    0.0000000   0.0000000   0.0000000   0.0000000   0.0000000   2.7928460   2.7928460   2.7928460   2.7928460   2.7928460
 AtZNuc=   6.0000000   6.0000000   8.0000000   8.0000000   8.0000000   1.0000000   1.0000000   1.0000000   1.0000000   1.0000000

  Atom       101         102         103         104         105         106         107         108         109         110
 IAtWgt=           1           1           1           1           1          16          12          12          12          12
 AtmWgt=   1.0078250   1.0078250   1.0078250   1.0078250   1.0078250  15.9949146  12.0000000  12.0000000  12.0000000  12.0000000
 NucSpn=           1           1           1           1           1           0           0           0           0           0
 AtZEff=  -0.0000000  -0.0000000  -0.0000000  -0.0000000  -0.0000000  -0.0000000  -0.0000000  -0.0000000  -0.0000000  -0.0000000
 NQMom=    0.0000000   0.0000000   0.0000000   0.0000000   0.0000000   0.0000000   0.0000000   0.0000000   0.0000000   0.0000000
 NMagM=    2.7928460   2.7928460   2.7928460   2.7928460   2.7928460   0.0000000   0.0000000   0.0000000   0.0000000   0.0000000
 AtZNuc=   1.0000000   1.0000000   1.0000000   1.0000000   1.0000000   8.0000000   6.0000000   6.0000000   6.0000000   6.0000000

  Atom       111         112         113         114         115         116         117         118         119         120
 IAtWgt=          16          12          12          16          16          16           1           1           1           1
 AtmWgt=  15.9949146  12.0000000  12.0000000  15.9949146  15.9949146  15.9949146   1.0078250   1.0078250   1.0078250   1.0078250
 NucSpn=           0           0           0           0           0           0           1           1           1           1
 AtZEff=  -0.0000000  -0.0000000  -0.0000000  -0.0000000  -0.0000000  -0.0000000  -0.0000000  -0.0000000  -0.0000000  -0.0000000
 NQMom=    0.0000000   0.0000000   0.0000000   0.0000000   0.0000000   0.0000000   0.0000000   0.0000000   0.0000000   0.0000000
 NMagM=    0.0000000   0.0000000   0.0000000   0.0000000   0.0000000   0.0000000   2.7928460   2.7928460   2.7928460   2.7928460
 AtZNuc=   8.0000000   6.0000000   6.0000000   8.0000000   8.0000000   8.0000000   1.0000000   1.0000000   1.0000000   1.0000000

  Atom       121         122         123         124         125         126         127         128         129         130
 IAtWgt=           1           1           1           1           1           1          16          12          12          12
 AtmWgt=   1.0078250   1.0078250   1.0078250   1.0078250   1.0078250   1.0078250  15.9949146  12.0000000  12.0000000  12.0000000
 NucSpn=           1           1           1           1           1           1           0           0           0           0
 AtZEff=  -0.0000000  -0.0000000  -0.0000000  -0.0000000  -0.0000000  -0.0000000  -0.0000000  -0.0000000  -0.0000000  -0.0000000
 NQMom=    0.0000000   0.0000000   0.0000000   0.0000000   0.0000000   0.0000000   0.0000000   0.0000000   0.0000000   0.0000000
 NMagM=    2.7928460   2.7928460   2.7928460   2.7928460   2.7928460   2.7928460   0.0000000   0.0000000   0.0000000   0.0000000
 AtZNuc=   1.0000000   1.0000000   1.0000000   1.0000000   1.0000000   1.0000000   8.0000000   6.0000000   6.0000000   6.0000000

  Atom       131         132         133         134         135         136         137         138         139         140
 IAtWgt=          12          16          12          12          16          16          16           1           1           1
 AtmWgt=  12.0000000  15.9949146  12.0000000  12.0000000  15.9949146  15.9949146  15.9949146   1.0078250   1.0078250   1.0078250
 NucSpn=           0           0           0           0           0           0           0           1           1           1
 AtZEff=  -0.0000000  -0.0000000  -0.0000000  -0.0000000  -0.0000000  -0.0000000  -0.0000000  -0.0000000  -0.0000000  -0.0000000
 NQMom=    0.0000000   0.0000000   0.0000000   0.0000000   0.0000000   0.0000000   0.0000000   0.0000000   0.0000000   0.0000000
 NMagM=    0.0000000   0.0000000   0.0000000   0.0000000   0.0000000   0.0000000   0.0000000   2.7928460   2.7928460   2.7928460
 AtZNuc=   6.0000000   8.0000000   6.0000000   6.0000000   8.0000000   8.0000000   8.0000000   1.0000000   1.0000000   1.0000000

  Atom       141         142         143         144         145         146         147         148         149         150
 IAtWgt=           1           1           1           1           1           1           1          16          12          12
 AtmWgt=   1.0078250   1.0078250   1.0078250   1.0078250   1.0078250   1.0078250   1.0078250  15.9949146  12.0000000  12.0000000
 NucSpn=           1           1           1           1           1           1           1           0           0           0
 AtZEff=  -0.0000000  -0.0000000  -0.0000000  -0.0000000  -0.0000000  -0.0000000  -0.0000000  -0.0000000  -0.0000000  -0.0000000
 NQMom=    0.0000000   0.0000000   0.0000000   0.0000000   0.0000000   0.0000000   0.0000000   0.0000000   0.0000000   0.0000000
 NMagM=    2.7928460   2.7928460   2.7928460   2.7928460   2.7928460   2.7928460   2.7928460   0.0000000   0.0000000   0.0000000
 AtZNuc=   1.0000000   1.0000000   1.0000000   1.0000000   1.0000000   1.0000000   1.0000000   8.0000000   6.0000000   6.0000000

  Atom       151         152         153         154         155         156         157         158         159         160
 IAtWgt=          12          12          16          12          12          16          16          16           1           1
 AtmWgt=  12.0000000  12.0000000  15.9949146  12.0000000  12.0000000  15.9949146  15.9949146  15.9949146   1.0078250   1.0078250
 NucSpn=           0           0           0           0           0           0           0           0           1           1
 AtZEff=  -0.0000000  -0.0000000  -0.0000000  -0.0000000  -0.0000000  -0.0000000  -0.0000000  -0.0000000  -0.0000000  -0.0000000
 NQMom=    0.0000000   0.0000000   0.0000000   0.0000000   0.0000000   0.0000000   0.0000000   0.0000000   0.0000000   0.0000000
 NMagM=    0.0000000   0.0000000   0.0000000   0.0000000   0.0000000   0.0000000   0.0000000   0.0000000   2.7928460   2.7928460
 AtZNuc=   6.0000000   6.0000000   8.0000000   6.0000000   6.0000000   8.0000000   8.0000000   8.0000000   1.0000000   1.0000000

  Atom       161         162         163         164         165         166         167         168
 IAtWgt=           1           1           1           1           1           1           1           1
 AtmWgt=   1.0078250   1.0078250   1.0078250   1.0078250   1.0078250   1.0078250   1.0078250   1.0078250
 NucSpn=           1           1           1           1           1           1           1           1
 AtZEff=  -0.0000000  -0.0000000  -0.0000000  -0.0000000  -0.0000000  -0.0000000  -0.0000000  -0.0000000
 NQMom=    0.0000000   0.0000000   0.0000000   0.0000000   0.0000000   0.0000000   0.0000000   0.0000000
 NMagM=    2.7928460   2.7928460   2.7928460   2.7928460   2.7928460   2.7928460   2.7928460   2.7928460
 AtZNuc=   1.0000000   1.0000000   1.0000000   1.0000000   1.0000000   1.0000000   1.0000000   1.0000000
 Leave Link  101 at Wed Sep 16 22:35:56 2020, MaxMem=   671088640 cpu:               0.1 elap:               0.1
 (Enter /home/gadres/g16/l202.exe)
 Symmetry turned off by external request.
 Stoichiometry    C48H80O40
 Framework group  C1[X(C48H80O40)]
 Deg. of freedom   498
 Full point group                 C1      NOp   1
                          Input orientation:                          
 ---------------------------------------------------------------------
 Center     Atomic      Atomic             Coordinates (Angstroms)
 Number     Number       Type             X           Y           Z
 ---------------------------------------------------------------------
      1          8           0       -3.141960    5.125610   -0.385900
      2          6           0       -4.430090    4.641880   -0.004510
      3          6           0       -5.119940    4.212580   -1.303570
      4          6           0       -6.496160    3.626840   -1.003170
      5          6           0       -6.439750    2.574030    0.114210
      6          8           0       -5.742440    3.079910    1.235480
      7          6           0       -4.367630    3.442340    0.956760
      8          6           0       -3.664570    3.664190    2.308900
      9          8           0       -5.319400    5.304980   -2.190860
     10          8           0       -7.090900    3.027030   -2.153920
     11          8           0       -2.555520    2.783320    2.503440
     12          1           0       -5.003780    5.452000    0.467590
     13          1           0       -4.495290    3.443300   -1.782140
     14          1           0       -7.137810    4.443900   -0.642630
     15          1           0       -7.451530    2.361130    0.475050
     16          1           0       -3.869310    2.605710    0.453490
     17          1           0       -4.406070    3.532500    3.107340
     18          1           0       -3.256510    4.673310    2.378850
     19          1           0       -4.469240    5.774670   -2.313040
     20          1           0       -7.073660    3.688420   -2.866440
     21          1           0       -2.882650    1.856780    2.553910
     22          8           0       -5.840520    1.401980   -0.378260
     23          6           0       -6.413230    0.148580   -0.003440
     24          6           0       -6.600290   -0.635680   -1.306450
     25          6           0       -7.158250   -2.025570   -1.013730
     26          6           0       -6.378880   -2.735710    0.103340
     27          8           0       -6.245800   -1.888740    1.227960
     28          6           0       -5.524180   -0.662510    0.954300
     29          6           0       -5.179230   -0.015080    2.308700
     30          8           0       -7.516540   -0.000290   -2.188010
     31          8           0       -7.150200   -2.864550   -2.168410
     32          8           0       -3.772180    0.160840    2.490530
     33          1           0       -7.391190    0.316640    0.469570
     34          1           0       -5.615660   -0.734290   -1.788150
     35          1           0       -8.191110   -1.903660   -0.656260
     36          1           0       -6.947060   -3.601650    0.459380
     37          1           0       -4.581640   -0.904850    0.450220
     38          1           0       -5.594990   -0.644010    3.106220
     39          1           0       -5.615560    0.981360    2.391430
     40          1           0       -7.250640    0.934770   -2.304300
     41          1           0       -7.606750   -2.383130   -2.879180
     42          1           0       -3.340860   -0.721750    2.545190
     43          8           0       -5.125580   -3.141830   -0.386390
     44          6           0       -4.641860   -4.430050   -0.005260
     45          6           0       -4.212550   -5.119620   -1.304460
     46          6           0       -3.626840   -6.495930   -1.004330
     47          6           0       -2.574060   -6.439770    0.113080
     48          8           0       -3.079930   -5.742670    1.234480
     49          6           0       -3.442340   -4.367800    0.956050
     50          6           0       -3.664210   -3.665030    2.308340
     51          8           0       -5.304920   -5.318860   -2.191820
     52          8           0       -3.027030   -7.090440   -2.155190
     53          8           0       -2.783340   -2.556030    2.503140
     54          1           0       -5.451990   -5.003830    0.466700
     55          1           0       -3.443240   -4.494890   -1.782860
     56          1           0       -4.443930   -7.137620   -0.643930
     57          1           0       -2.361190   -7.451630    0.473720
     58          1           0       -2.605690   -3.869380    0.452900
     59          1           0       -3.532550   -4.406700    3.106620
     60          1           0       -4.673340   -3.256980    2.378340
     61          1           0       -5.774560   -4.468650   -2.313860
     62          1           0       -3.688420   -7.073050   -2.867710
     63          1           0       -1.856810   -2.883170    2.553590
     64          8           0       -1.401980   -5.840480   -0.379250
     65          6           0       -0.148590   -6.413280   -0.004520
     66          6           0        0.635650   -6.600140   -1.307570
     67          6           0        2.025540   -7.158150   -1.014970
     68          6           0        2.735700   -6.378950    0.102210
     69          8           0        1.888760   -6.246050    1.226870
     70          6           0        0.662510   -5.524400    0.953360
     71          6           0        0.015090   -5.179690    2.307820
     72          8           0        0.000240   -7.516270   -2.189260
     73          8           0        2.864500   -7.149920   -2.169650
     74          8           0       -0.160860   -3.772680    2.489910
     75          1           0       -0.316670   -7.391310    0.468320
     76          1           0        0.734240   -5.615440   -1.789120
     77          1           0        1.903640   -8.191060   -0.657650
     78          1           0        3.601650   -6.947180    0.458150
     79          1           0        0.904840   -4.581760    0.449440
     80          1           0        0.644040   -5.595590    3.105270
     81          1           0       -0.981330   -5.616060    2.390490
     82          1           0       -0.934820   -7.250360   -2.305470
     83          1           0        2.383070   -7.606360   -2.880490
     84          1           0        0.721710   -3.341340    2.544630
     85          8           0        3.141810   -5.125570   -0.387320
     86          6           0        4.430020   -4.641890   -0.006130
     87          6           0        5.119590   -4.212380   -1.305270
     88          6           0        6.495880   -3.626700   -1.005060
     89          6           0        6.439710   -2.574080    0.112510
     90          8           0        5.742630   -3.080130    1.233830
     91          6           0        4.367760   -3.442520    0.955350
     92          6           0        3.664990   -3.664590    2.307600
     93          8           0        5.318840   -5.304630   -2.192790
     94          8           0        7.090390   -3.026720   -2.155840
     95          8           0        2.555980   -2.783760    2.502530
     96          1           0        5.003820   -5.452090    0.465710
     97          1           0        4.494840   -3.443010   -1.783570
     98          1           0        7.137590   -4.443830   -0.644790
     99          1           0        7.451570   -2.361250    0.473170
    100          1           0        3.869330   -2.605800    0.452320
    101          1           0        4.406660   -3.533040    3.105910
    102          1           0        3.256960   -4.673730    2.377460
    103          1           0        4.468650   -5.774280   -2.314880
    104          1           0        7.073000   -3.688000   -2.868460
    105          1           0        2.883100   -1.857240    2.553090
    106          8           0        5.840410   -1.401930   -0.379650
    107          6           0        6.413190   -0.148600   -0.004710
    108          6           0        6.600030    0.635880   -1.307620
    109          6           0        7.158040    2.025720   -1.014740
    110          6           0        6.378860    2.735660    0.102580
    111          8           0        6.245980    1.888500    1.227080
    112          6           0        5.524320    0.662320    0.953330
    113          6           0        5.179610    0.014630    2.307670
    114          8           0        7.516140    0.000650   -2.189440
    115          8           0        7.149800    2.864900   -2.169270
    116          8           0        3.772580   -0.161270    2.489740
    117          1           0        7.391230   -0.316750    0.468100
    118          1           0        5.615330    0.734580   -1.789130
    119          1           0        8.190960    1.903740   -0.657470
    120          1           0        6.947090    3.601550    0.458680
    121          1           0        4.581680    0.904750    0.449460
    122          1           0        5.595560    0.643390    3.105230
    123          1           0        5.615910   -0.981840    2.390120
    124          1           0        7.250230   -0.934390   -2.305840
    125          1           0        7.606220    2.383610   -2.880210
    126          1           0        3.341300    0.721320    2.544610
    127          8           0        5.125470    3.141850   -0.386850
    128          6           0        4.641800    4.429990   -0.005430
    129          6           0        4.212240    5.119770   -1.304440
    130          6           0        3.626590    6.496030   -1.003990
    131          6           0        2.574020    6.439690    0.113610
    132          8           0        3.080100    5.742420    1.234810
    133          6           0        3.442470    4.367590    0.956100
    134          6           0        3.664600    3.664610    2.308230
    135          8           0        5.304450    5.319140   -2.191980
    136          8           0        3.026560    7.090720   -2.154640
    137          8           0        2.783740    2.555600    2.503050
    138          1           0        5.452020    5.003720    0.466470
    139          1           0        3.442850    4.495110   -1.782800
    140          1           0        4.443740    7.137670   -0.643650
    141          1           0        2.361220    7.451500    0.474450
    142          1           0        2.605720    3.869250    0.453030
    143          1           0        3.533120    4.406160    3.106650
    144          1           0        4.673730    3.256530    2.377960
    145          1           0        5.774070    4.468960   -2.314230
    146          1           0        3.687810    7.073430   -2.867300
    147          1           0        1.857230    2.882750    2.553750
    148          8           0        1.401850    5.840480   -0.378600
    149          6           0        0.148530    6.413220   -0.003540
    150          6           0       -0.635960    6.600280   -1.306420
    151          6           0       -2.025780    7.158260   -1.013460
    152          6           0       -2.735740    6.378920    0.103740
    153          8           0       -1.888580    6.245830    1.228220
    154          6           0       -0.662400    5.524210    0.954360
    155          6           0       -0.014720    5.179310    2.308660
    156          8           0       -0.000710    7.516510   -2.188100
    157          8           0       -2.864960    7.150230   -2.167980
    158          8           0        0.161280    3.772270    2.490500
    159          1           0        0.316700    7.391190    0.469410
    160          1           0       -0.734670    5.615650   -1.788080
    161          1           0       -1.903790    8.191130   -0.656020
    162          1           0       -3.601610    6.947100    0.459940
    163          1           0       -0.904830    4.581650    0.450360
    164          1           0       -0.643520    5.595080    3.106280
    165          1           0        0.981720    5.615670    2.391200
    166          1           0        0.934320    7.250590   -2.304540
    167          1           0       -2.383670    7.606760   -2.878850
    168          1           0       -0.721270    3.340910    2.545330
 ---------------------------------------------------------------------
 Rotational constants (GHZ):           0.0166611           0.0166608           0.0093833
 Leave Link  202 at Wed Sep 16 22:35:56 2020, MaxMem=   671088640 cpu:               0.0 elap:               0.0
 (Enter /home/gadres/g16/l301.exe)
 Standard basis: 6-31+G(d) (6D, 7F)
 Ernie: Thresh=  0.10000D-02 Tol=  0.10000D-05 Strict=F.
  1832 basis functions,  3136 primitive gaussians,  1832 cartesian basis functions
   344 alpha electrons      344 beta electrons
       nuclear repulsion energy     19083.2258411508 Hartrees.
 IExCor=  402 DFT=T Ex+Corr=B3LYP ExCW=0 ScaHFX=  0.200000
 ScaDFX=  0.800000  0.720000  1.000000  0.810000 ScalE2=  1.000000  1.000000
 IRadAn=      5 IRanWt=     -1 IRanGd=            0 ICorTp=0 IEmpDi=  4
 NAtoms=  168 NActive=  168 NUniq=  168 SFac= 1.00D+00 NAtFMM=   60 NAOKFM=T Big=T
 Integral buffers will be    131072 words long.
 Raffenetti 2 integral format.
 Two-electron integral symmetry is turned off.
 Leave Link  301 at Wed Sep 16 22:35:56 2020, MaxMem=   671088640 cpu:               0.1 elap:               0.1
 (Enter /home/gadres/g16/l302.exe)
 NPDir=0 NMtPBC=     1 NCelOv=     1 NCel=       1 NClECP=     1 NCelD=      1
         NCelK=      1 NCelE2=     1 NClLst=     1 CellRange=     0.0.
 One-electron integrals computed using PRISM.
 NBasis=  1832 RedAO= T EigKep=  1.61D-06  NBF=  1832
 NBsUse=  1832 1.00D-06 EigRej= -1.00D+00 NBFU=  1832
 Precomputing XC quadrature grid using
 IXCGrd= 4 IRadAn=           5 IRanWt=          -1 IRanGd=           0 AccXCQ= 0.00D+00.
 Generated NRdTot=       0 NPtTot=           0 NUsed=           0 NTot=          32
 NSgBfM=  1352  1352  1352  1352  1352 MxSgAt=   168 MxSgA2=   167.
 Leave Link  302 at Wed Sep 16 22:36:30 2020, MaxMem=   671088640 cpu:              34.7 elap:              34.7
 (Enter /home/gadres/g16/l303.exe)
 DipDrv:  MaxL=1.
 Leave Link  303 at Wed Sep 16 22:36:31 2020, MaxMem=   671088640 cpu:               0.4 elap:               0.4
 (Enter /home/gadres/g16/l401.exe)
 ExpMin= 4.38D-02 ExpMax= 5.48D+03 ExpMxC= 8.25D+02 IAcc=3 IRadAn=         5 AccDes= 0.00D+00
 Harris functional with IExCor=  402 and IRadAn=       5 diagonalized for initial guess.
 HarFok:  IExCor=  402 AccDes= 0.00D+00 IRadAn=         5 IDoV= 1 UseB2=F ITyADJ=14
 ICtDFT=  3500011 ScaDFX=  1.000000  1.000000  1.000000  1.000000
 FoFCou: FMM=F IPFlag=           0 FMFlag=      100000 FMFlg1=        2001
         NFxFlg=           0 DoJE=T BraDBF=F KetDBF=T FulRan=T
         wScrn=  0.000000 ICntrl=       500 IOpCl=  0 I1Cent=   200000004 NGrid=           0
         NMat0=    1 NMatS0=      1 NMatT0=    0 NMatD0=    1 NMtDS0=    0 NMtDT0=    0
 Symmetry not used in FoFCou.
 Harris En= -4885.74231790801    
 JPrj=0 DoOrth=F DoCkMO=F.
 Leave Link  401 at Wed Sep 16 22:39:44 2020, MaxMem=   671088640 cpu:             193.4 elap:             193.4
0******************
 *Kjob Termination*
 *  in Link    401*
 ******************
 Job cpu time:       0 days  0 hours  3 minutes 48.8 seconds.
 Elapsed time:       0 days  0 hours  3 minutes 48.7 seconds.
 File lengths (MBytes):  RWF=    253 Int=      0 D2E=      0 Chk=      1 Scr=      1
 Normal termination of Gaussian 16 at Wed Sep 16 22:39:44 2020.
 Harmonic frequencies (cm**-1), IR intensities (KM/Mole), Raman scattering
 activities (A**4/AMU), depolarization ratios for plane and unpolarized
 incident light, reduced masses (AMU), force constants (mDyne/A),
 and normal coordinates:
                    -5                     -4                     -3
                     A                      A                      A
 Frequencies --   184.0116               162.8128                56.5735
 Red. masses --     3.6391                 6.1792                 6.7779
 Frc consts  --     0.0323                 0.0430                 0.0057
 IR Inten    --     6.4960                 0.0022                 0.0035
  Atom  AN      X      Y      Z        X      Y      Z        X      Y      Z
   1   8    -0.01   0.03   0.01     0.05  -0.08  -0.04    -0.00  -0.07   0.04
   2   6    -0.02   0.04  -0.00     0.05  -0.07  -0.05    -0.03  -0.02   0.00
   3   6    -0.01   0.01   0.00     0.02   0.01  -0.05    -0.01  -0.01  -0.01
   4   6    -0.00  -0.01   0.01     0.01   0.03  -0.04    -0.03   0.03  -0.04
   5   6     0.01   0.02   0.03     0.01   0.02  -0.05    -0.08   0.03  -0.04
   6   8     0.03   0.01   0.02    -0.00   0.01  -0.04    -0.11   0.03  -0.02
   7   6     0.02   0.04  -0.01     0.01  -0.05  -0.03    -0.09  -0.01   0.02
   8   6     0.06   0.05  -0.03    -0.03  -0.01  -0.02    -0.12  -0.01   0.04
   9   8    -0.03  -0.03  -0.04     0.01   0.09   0.04     0.04  -0.01  -0.02
  10   8     0.03  -0.08   0.03    -0.04   0.08  -0.03    -0.02   0.04  -0.05
  11   8    -0.02  -0.04   0.00    -0.00   0.04   0.04    -0.07   0.04   0.03
  12   1    -0.02   0.04  -0.01     0.07  -0.06  -0.04    -0.02  -0.00  -0.02
  13   1     0.00   0.00   0.03    -0.02   0.03  -0.13    -0.02  -0.03   0.01
  14   1    -0.03  -0.01  -0.03     0.05   0.04   0.00    -0.02   0.04  -0.06
  15   1     0.02   0.03   0.06     0.00   0.02  -0.06    -0.09   0.03  -0.07
  16   1     0.03   0.06  -0.03    -0.00  -0.08   0.01    -0.10  -0.03   0.05
  17   1     0.06   0.18  -0.01    -0.05  -0.02  -0.04    -0.12  -0.07   0.02
  18   1     0.16   0.01  -0.11    -0.06   0.01  -0.02    -0.16   0.01   0.07
  19   1    -0.04   0.00  -0.02     0.01   0.08   0.03     0.05  -0.01   0.02
  20   1    -0.02  -0.10   0.01    -0.05   0.10  -0.02     0.01   0.03  -0.06
  21   1    -0.06  -0.02   0.01     0.03   0.03   0.05    -0.03   0.03   0.01
  22   8    -0.02   0.01   0.01     0.02   0.01  -0.02    -0.07   0.03  -0.02
  23   6    -0.03   0.02  -0.02     0.03   0.02   0.04    -0.04   0.03  -0.01
  24   6    -0.01   0.00  -0.01     0.01   0.03   0.04    -0.04   0.02  -0.00
  25   6     0.01  -0.01   0.01    -0.01   0.03   0.00     0.00   0.00   0.00
  26   6    -0.01   0.02   0.03    -0.07   0.00   0.02     0.03   0.02   0.00
  27   8     0.01   0.04   0.01    -0.05   0.01   0.02     0.01   0.03  -0.01
  28   6    -0.01   0.04  -0.02     0.01  -0.01   0.04    -0.01   0.04  -0.02
  29   6     0.00   0.08  -0.05     0.02  -0.05   0.06     0.00   0.05  -0.03
  30   8    -0.01  -0.03  -0.03     0.03   0.07   0.06    -0.07  -0.00   0.01
  31   8     0.07  -0.04   0.03     0.03   0.07  -0.03     0.03   0.00   0.00
  32   8     0.01  -0.04   0.01     0.02  -0.02   0.04     0.01   0.03  -0.03
  33   1    -0.03   0.01  -0.02     0.04   0.04   0.04    -0.04   0.01   0.01
  34   1    -0.01   0.01  -0.00     0.01   0.02   0.04    -0.04   0.05  -0.02
  35   1    -0.01  -0.02  -0.03    -0.03   0.04  -0.04     0.00  -0.03   0.00
  36   1    -0.02   0.03   0.06    -0.11   0.03   0.03     0.04   0.02   0.01
  37   1    -0.01   0.05  -0.03    -0.00  -0.05   0.04    -0.02   0.06  -0.04
  38   1    -0.10   0.19  -0.02     0.05  -0.09   0.04    -0.01   0.06  -0.02
  39   1     0.11   0.14  -0.14    -0.00  -0.06   0.10     0.02   0.05  -0.03
  40   1    -0.04  -0.02  -0.02     0.06   0.06   0.05    -0.07  -0.01  -0.02
  41   1     0.04  -0.09   0.01     0.05   0.09  -0.02     0.00  -0.02   0.00
  42   1    -0.04  -0.07   0.02     0.04  -0.01   0.01     0.00   0.03  -0.02
  43   8    -0.03  -0.01   0.01    -0.08  -0.05   0.04     0.03   0.04   0.00
  44   6    -0.04  -0.01  -0.00    -0.07  -0.05   0.05     0.04   0.04   0.01
  45   6    -0.01  -0.01   0.00     0.01  -0.02   0.05     0.05   0.03   0.02
  46   6     0.01  -0.00   0.01     0.03  -0.01   0.04     0.02   0.03   0.04
  47   6    -0.01   0.01   0.03     0.02  -0.01   0.05     0.03   0.03   0.04
  48   8    -0.01   0.03   0.02     0.01   0.00   0.04     0.04   0.06   0.03
  49   6    -0.04   0.02  -0.01    -0.05  -0.01   0.03     0.04   0.05   0.01
  50   6    -0.04   0.05  -0.03    -0.01   0.03   0.01     0.03   0.06   0.00
  51   8     0.03  -0.02  -0.03     0.09  -0.01  -0.04     0.05   0.04   0.01
  52   8     0.07   0.02   0.03     0.08   0.04   0.03     0.01   0.00   0.05
  53   8     0.04  -0.02  -0.00     0.03   0.00  -0.05     0.06   0.04   0.02
  54   1    -0.04  -0.02  -0.01    -0.06  -0.07   0.04     0.05   0.04   0.01
  55   1    -0.00   0.00   0.02     0.03   0.02   0.13     0.06   0.02   0.02
  56   1     0.01  -0.02  -0.03     0.04  -0.05  -0.00     0.01   0.05   0.05
  57   1    -0.02   0.01   0.05     0.02  -0.00   0.06     0.01   0.03   0.05
  58   1    -0.05   0.02  -0.03    -0.09   0.00  -0.01     0.05   0.05   0.01
  59   1    -0.16   0.06  -0.01    -0.02   0.05   0.04    -0.01   0.06   0.01
  60   1    -0.01   0.15  -0.10     0.01   0.06   0.02     0.04   0.09  -0.02
  61   1     0.00  -0.04  -0.02     0.08  -0.01  -0.03     0.05   0.04   0.01
  62   1     0.09  -0.02   0.01     0.10   0.05   0.02     0.01   0.01   0.05
  63   1     0.03  -0.06   0.01     0.03  -0.03  -0.05     0.05  -0.00   0.02
  64   8    -0.01  -0.01   0.01     0.01  -0.02   0.02     0.04  -0.00   0.02
  65   6    -0.01  -0.02  -0.01     0.02  -0.03  -0.04     0.03  -0.05  -0.01
  66   6     0.00  -0.01  -0.01     0.03  -0.01  -0.04     0.00  -0.04  -0.02
  67   6     0.01   0.01   0.00     0.03   0.01  -0.00     0.00  -0.06  -0.06
  68   6    -0.02  -0.01   0.03     0.00   0.07  -0.02     0.02  -0.08  -0.05
  69   8    -0.03   0.01   0.01     0.01   0.05  -0.02     0.05  -0.12  -0.03
  70   6    -0.04  -0.01  -0.02    -0.01  -0.01  -0.04     0.05  -0.09   0.00
  71   6    -0.07   0.01  -0.04    -0.05  -0.02  -0.06     0.07  -0.10   0.02
  72   8     0.03  -0.01  -0.03     0.07  -0.03  -0.06    -0.02  -0.02  -0.02
  73   8     0.04   0.06   0.02     0.07  -0.03   0.03    -0.01  -0.04  -0.07
  74   8     0.04   0.01   0.01    -0.02  -0.02  -0.04     0.00  -0.11  -0.00
  75   1    -0.01  -0.02  -0.02     0.04  -0.04  -0.05     0.01  -0.05  -0.03
  76   1    -0.00  -0.01  -0.00     0.02  -0.01  -0.04     0.01  -0.04  -0.01
  77   1     0.02  -0.01  -0.03     0.04   0.03   0.04     0.00  -0.06  -0.07
  78   1    -0.03  -0.02   0.05     0.03   0.11  -0.03     0.04  -0.08  -0.09
  79   1    -0.04  -0.01  -0.03    -0.05   0.00  -0.04     0.06  -0.08   0.02
  80   1    -0.16  -0.09  -0.02    -0.09  -0.05  -0.04     0.12  -0.05   0.01
  81   1    -0.12   0.10  -0.12    -0.06   0.00  -0.10     0.10  -0.15   0.06
  82   1     0.02  -0.03  -0.02     0.06  -0.06  -0.05    -0.02  -0.02   0.00
  83   1     0.09   0.03   0.01     0.09  -0.05   0.02    -0.03  -0.03  -0.07
  84   1     0.06  -0.03   0.02    -0.01  -0.04  -0.01    -0.02  -0.05  -0.01
  85   8     0.01  -0.03   0.01    -0.05   0.08  -0.04    -0.00  -0.07  -0.04
  86   6     0.01  -0.03  -0.00    -0.05   0.07  -0.05    -0.03  -0.02  -0.00
  87   6     0.01  -0.00   0.00    -0.02  -0.01  -0.05    -0.01  -0.01   0.01
  88   6     0.00   0.01   0.01    -0.01  -0.03  -0.04    -0.04   0.03   0.04
  89   6    -0.01  -0.01   0.03    -0.01  -0.02  -0.05    -0.08   0.03   0.04
  90   8    -0.03  -0.01   0.02     0.00  -0.01  -0.04    -0.11   0.03   0.02
  91   6    -0.02  -0.03  -0.01    -0.01   0.05  -0.03    -0.09  -0.01  -0.02
  92   6    -0.05  -0.04  -0.03     0.03   0.01  -0.01    -0.12  -0.01  -0.03
  93   8     0.02   0.02  -0.03    -0.01  -0.09   0.04     0.04  -0.01   0.02
  94   8    -0.02   0.07   0.03     0.04  -0.08  -0.04    -0.03   0.04   0.05
  95   8     0.01   0.03  -0.00     0.00  -0.04   0.05    -0.07   0.04  -0.02
  96   1     0.02  -0.03  -0.00    -0.07   0.06  -0.04    -0.02  -0.00   0.02
  97   1    -0.00  -0.00   0.02     0.02  -0.03  -0.13    -0.02  -0.03  -0.00
  98   1     0.02   0.01  -0.03    -0.05  -0.04   0.00    -0.02   0.05   0.06
  99   1    -0.01  -0.02   0.05    -0.00  -0.02  -0.06    -0.09   0.04   0.07
 100   1    -0.02  -0.05  -0.02     0.00   0.09   0.01    -0.10  -0.03  -0.04
 101   1    -0.05  -0.14  -0.01     0.05   0.02  -0.04    -0.12  -0.07  -0.02
 102   1    -0.13  -0.01  -0.09     0.06  -0.01  -0.02    -0.17   0.01  -0.07
 103   1     0.03   0.00  -0.01    -0.01  -0.08   0.03     0.04  -0.01  -0.02
 104   1     0.01   0.09   0.01     0.05  -0.10  -0.02     0.01   0.04   0.05
 105   1     0.04   0.02   0.01    -0.03  -0.03   0.05    -0.03   0.03  -0.00
 106   8     0.01  -0.01   0.01    -0.02  -0.01  -0.02    -0.07   0.03   0.03
 107   6     0.02  -0.01  -0.01    -0.03  -0.02   0.04    -0.04   0.03   0.01
 108   6     0.01   0.00  -0.01    -0.01  -0.03   0.04    -0.04   0.02   0.00
 109   6    -0.01   0.01   0.00     0.01  -0.03   0.00     0.01   0.00  -0.00
 110   6     0.01  -0.02   0.03     0.07  -0.00   0.02     0.03   0.02  -0.00
 111   8    -0.01  -0.03   0.01     0.05  -0.01   0.02     0.02   0.04   0.00
 112   6     0.00  -0.04  -0.02    -0.01   0.01   0.04    -0.01   0.05   0.02
 113   6    -0.01  -0.08  -0.04    -0.02   0.05   0.06     0.01   0.05   0.02
 114   8     0.01   0.03  -0.03    -0.03  -0.07   0.06    -0.07  -0.01  -0.01
 115   8    -0.07   0.04   0.02    -0.03  -0.07  -0.03     0.04  -0.00  -0.00
 116   8    -0.01   0.04   0.01    -0.02   0.02   0.04     0.01   0.03   0.03
 117   1     0.02  -0.01  -0.02    -0.04  -0.04   0.05    -0.04   0.01  -0.01
 118   1     0.01  -0.00  -0.00    -0.01  -0.02   0.04    -0.04   0.05   0.01
 119   1     0.01   0.02  -0.04     0.03  -0.04  -0.04     0.01  -0.03  -0.00
 120   1     0.02  -0.03   0.05     0.11  -0.03   0.03     0.05   0.02  -0.01
 121   1     0.01  -0.04  -0.03     0.00   0.05   0.04    -0.01   0.07   0.04
 122   1     0.09  -0.17  -0.02    -0.06   0.09   0.04    -0.01   0.07   0.02
 123   1    -0.10  -0.13  -0.12     0.00   0.06   0.10     0.03   0.06   0.04
 124   1     0.03   0.02  -0.02    -0.06  -0.06   0.05    -0.07  -0.01   0.02
 125   1    -0.04   0.09   0.01    -0.05  -0.09  -0.02     0.01  -0.02  -0.01
 126   1     0.03   0.06   0.02    -0.04   0.01   0.01     0.00   0.02   0.01
 127   8     0.03   0.01   0.01     0.08   0.05   0.04     0.04   0.04  -0.01
 128   6     0.04   0.02  -0.00     0.07   0.05   0.05     0.05   0.04  -0.01
 129   6     0.01   0.01   0.00    -0.01   0.02   0.05     0.05   0.03  -0.02
 130   6    -0.01   0.00   0.01    -0.03   0.01   0.04     0.02   0.03  -0.04
 131   6     0.01  -0.01   0.03    -0.02   0.01   0.05     0.02   0.02  -0.03
 132   8     0.01  -0.03   0.02    -0.01  -0.00   0.04     0.04   0.05  -0.03
 133   6     0.04  -0.02  -0.01     0.05   0.01   0.03     0.05   0.05  -0.01
 134   6     0.04  -0.06  -0.03     0.01  -0.03   0.01     0.03   0.05  -0.01
 135   8    -0.03   0.02  -0.03    -0.09   0.01  -0.04     0.05   0.04  -0.01
 136   8    -0.08  -0.03   0.03    -0.08  -0.04   0.03     0.01  -0.00  -0.05
 137   8    -0.04   0.01   0.00    -0.04  -0.00  -0.05     0.06   0.03  -0.03
 138   1     0.04   0.02  -0.00     0.06   0.07   0.03     0.05   0.04  -0.02
 139   1     0.00  -0.00   0.03    -0.03  -0.02   0.13     0.06   0.02  -0.02
 140   1    -0.01   0.03  -0.03    -0.04   0.05  -0.00     0.01   0.05  -0.05
 141   1     0.02  -0.01   0.05    -0.02   0.00   0.06     0.01   0.02  -0.05
 142   1     0.05  -0.02  -0.03     0.09  -0.00  -0.01     0.05   0.04  -0.01
 143   1     0.16  -0.06  -0.01     0.02  -0.05   0.04    -0.00   0.05  -0.01
 144   1     0.01  -0.15  -0.09    -0.01  -0.06   0.01     0.04   0.08   0.01
 145   1    -0.00   0.04  -0.02    -0.08   0.01  -0.03     0.05   0.04  -0.01
 146   1    -0.10   0.01   0.01    -0.10  -0.05   0.02     0.00   0.00  -0.05
 147   1    -0.02   0.05   0.01    -0.03   0.03  -0.05     0.05  -0.00  -0.02
 148   8     0.01   0.02   0.01    -0.01   0.02   0.02     0.03  -0.01  -0.02
 149   6     0.01   0.02  -0.01    -0.02   0.03  -0.04     0.02  -0.05   0.01
 150   6    -0.00   0.01  -0.01    -0.03   0.01  -0.04     0.00  -0.04   0.02
 151   6    -0.01  -0.01   0.00    -0.03  -0.01  -0.00     0.00  -0.06   0.06
 152   6     0.02   0.01   0.03    -0.00  -0.07  -0.02     0.02  -0.08   0.06
 153   8     0.04  -0.01   0.01    -0.01  -0.05  -0.02     0.04  -0.11   0.03
 154   6     0.04   0.01  -0.02     0.01   0.01  -0.04     0.05  -0.08   0.00
 155   6     0.09  -0.01  -0.04     0.05   0.02  -0.06     0.07  -0.09  -0.01
 156   8    -0.03   0.01  -0.03    -0.07   0.03  -0.05    -0.02  -0.03   0.02
 157   8    -0.04  -0.07   0.03    -0.07   0.03   0.03    -0.01  -0.04   0.07
 158   8    -0.04  -0.01   0.01     0.02   0.02  -0.04    -0.00  -0.10   0.01
 159   1     0.01   0.03  -0.02    -0.04   0.03  -0.04     0.01  -0.05   0.03
 160   1     0.00   0.01  -0.00    -0.02   0.01  -0.04     0.00  -0.04   0.02
 161   1    -0.02   0.01  -0.04    -0.04  -0.03   0.04     0.00  -0.06   0.07
 162   1     0.04   0.02   0.06    -0.03  -0.10  -0.03     0.04  -0.08   0.09
 163   1     0.05   0.01  -0.03     0.05  -0.00  -0.04     0.06  -0.08  -0.01
 164   1     0.19   0.10  -0.02     0.09   0.05  -0.04     0.12  -0.04  -0.00
 165   1     0.14  -0.11  -0.13     0.06  -0.00  -0.10     0.10  -0.15  -0.06
 166   1    -0.02   0.04  -0.02    -0.06   0.06  -0.05    -0.02  -0.02  -0.00
 167   1    -0.10  -0.04   0.01    -0.09   0.05   0.02    -0.02  -0.03   0.07
 168   1    -0.06   0.03   0.02     0.01   0.04  -0.01    -0.02  -0.05   0.02
                    -2                     -1                      0
                     A                      A                      A
 Frequencies --   400.4023               466.0035               267.3182
 Red. masses --     2.8109                 5.9284                 3.3291
 Frc consts  --     0.1182                 0.3376                 0.0624
 IR Inten    --     0.0222                15.8096                23.8956
  Atom  AN      X      Y      Z        X      Y      Z        X      Y      Z
   1   8     0.01   0.01  -0.03    -0.02  -0.01   0.14     0.00   0.02  -0.02
   2   6     0.01   0.01   0.00    -0.03   0.01   0.02     0.01   0.02  -0.00
   3   6    -0.04   0.01   0.04     0.03  -0.04  -0.00     0.00   0.00  -0.00
   4   6    -0.05   0.00   0.03     0.01  -0.05  -0.05     0.00  -0.01  -0.00
   5   6    -0.02  -0.01   0.02     0.01   0.02   0.03     0.02  -0.00  -0.01
   6   8     0.03  -0.00  -0.03     0.10   0.01  -0.04     0.01   0.01  -0.01
   7   6     0.02  -0.01  -0.06     0.07   0.03  -0.05     0.01   0.01   0.00
   8   6    -0.03  -0.02  -0.05    -0.02   0.00  -0.02    -0.03  -0.04   0.04
   9   8     0.03  -0.02   0.01    -0.00  -0.02   0.05    -0.02  -0.01  -0.01
  10   8     0.03   0.00  -0.02    -0.06   0.01  -0.06    -0.02  -0.01   0.01
  11   8    -0.03   0.02  -0.00    -0.03   0.01  -0.02     0.01  -0.00   0.01
  12   1     0.04   0.01   0.05    -0.08  -0.02   0.01     0.01   0.02  -0.01
  13   1    -0.07  -0.03   0.07     0.08   0.00   0.01     0.01   0.01  -0.00
  14   1    -0.09  -0.03   0.02     0.05  -0.01  -0.06     0.01  -0.01   0.01
  15   1    -0.00  -0.03   0.06     0.02   0.08   0.11     0.02  -0.01  -0.01
  16   1     0.02  -0.00  -0.08     0.12   0.08  -0.08     0.02   0.02   0.00
  17   1    -0.07  -0.04  -0.08    -0.08  -0.08  -0.08    -0.05  -0.15   0.00
  18   1    -0.06  -0.00  -0.02    -0.06   0.01   0.08    -0.10  -0.02   0.14
  19   1     0.05  -0.02   0.07    -0.00  -0.04  -0.03    -0.03   0.02   0.01
  20   1    -0.18   0.10   0.07    -0.02   0.04  -0.03    -0.06   0.01   0.02
  21   1    -0.01   0.01  -0.01    -0.03   0.01  -0.04     0.03  -0.01  -0.01
  22   8     0.00  -0.00   0.03    -0.03  -0.01   0.11     0.03  -0.00  -0.00
  23   6     0.01  -0.01  -0.01    -0.02  -0.00   0.03     0.00   0.01   0.00
  24   6     0.04   0.02  -0.04     0.06   0.00   0.01     0.00  -0.01   0.02
  25   6     0.03   0.03  -0.02     0.05   0.00  -0.03     0.01  -0.00   0.02
  26   6     0.00   0.02  -0.01    -0.02   0.02   0.01     0.03  -0.01  -0.00
  27   8    -0.02  -0.02   0.03     0.03   0.07  -0.05    -0.00   0.00   0.00
  28   6    -0.02  -0.01   0.05     0.02   0.05  -0.05    -0.01   0.00   0.01
  29   6     0.01   0.03   0.04    -0.01  -0.02  -0.03    -0.00  -0.00   0.01
  30   8    -0.04  -0.01  -0.01     0.01  -0.04   0.06    -0.02  -0.09  -0.01
  31   8    -0.02  -0.03   0.02    -0.03  -0.03  -0.02    -0.03   0.07  -0.03
  32   8     0.02   0.01   0.00    -0.02  -0.01  -0.01     0.00   0.00  -0.00
  33   1    -0.02  -0.03  -0.05    -0.04  -0.07   0.02     0.00   0.03  -0.00
  34   1     0.03   0.07  -0.07     0.08   0.08   0.02     0.00  -0.00   0.02
  35   1     0.04   0.09  -0.02     0.05   0.07  -0.05     0.02  -0.01   0.05
  36   1    -0.02   0.02  -0.05    -0.05   0.06   0.06     0.05  -0.02  -0.01
  37   1    -0.01  -0.02   0.07     0.02   0.09  -0.07    -0.00   0.01   0.01
  38   1     0.02   0.06   0.07    -0.01  -0.08  -0.08     0.01  -0.01   0.01
  39   1     0.03   0.04   0.02    -0.04  -0.03   0.03    -0.01  -0.00   0.02
  40   1    -0.05  -0.02  -0.07    -0.01  -0.04  -0.01    -0.06  -0.08  -0.06
  41   1     0.24   0.08  -0.08     0.02   0.01  -0.03     0.07   0.19  -0.01
  42   1     0.01  -0.00   0.01    -0.02  -0.01  -0.02     0.00   0.00  -0.01
  43   8    -0.01   0.01  -0.03    -0.03  -0.02   0.04     0.04   0.02   0.02
  44   6    -0.01   0.01   0.00    -0.01   0.01   0.03     0.01   0.00   0.00
  45   6    -0.01  -0.04   0.04     0.02   0.05   0.03     0.01  -0.00   0.02
  46   6    -0.00  -0.05   0.02    -0.00   0.04  -0.00     0.01   0.01   0.02
  47   6     0.01  -0.02   0.02    -0.03  -0.00  -0.03     0.03   0.01   0.00
  48   8    -0.00   0.03  -0.03    -0.05  -0.01  -0.05    -0.00  -0.01   0.01
  49   6     0.01   0.02  -0.05     0.01   0.01  -0.03    -0.00  -0.01   0.01
  50   6     0.01  -0.03  -0.04     0.01  -0.01  -0.04    -0.03   0.02  -0.02
  51   8     0.02   0.03   0.01     0.04  -0.03   0.05     0.04  -0.08  -0.00
  52   8    -0.00   0.03  -0.02     0.01  -0.01   0.05    -0.10   0.04  -0.04
  53   8    -0.01  -0.02  -0.00    -0.01  -0.00   0.01     0.00  -0.01  -0.01
  54   1    -0.01   0.04   0.05     0.02  -0.02   0.04    -0.01   0.02  -0.01
  55   1     0.04  -0.07   0.07    -0.00   0.09   0.04     0.00   0.00   0.01
  56   1     0.03  -0.09   0.02    -0.04   0.09  -0.01     0.02   0.02   0.07
  57   1     0.03   0.00   0.06    -0.03  -0.00  -0.04     0.05   0.02  -0.01
  58   1    -0.00   0.02  -0.07     0.01  -0.02  -0.04     0.00  -0.01   0.01
  59   1     0.03  -0.06  -0.08    -0.01  -0.01  -0.04    -0.10   0.04   0.01
  60   1     0.00  -0.06  -0.02     0.01  -0.01  -0.05    -0.02   0.07  -0.08
  61   1     0.02   0.05   0.08    -0.00  -0.06  -0.00     0.03  -0.10  -0.09
  62   1    -0.10  -0.17   0.06     0.07   0.05  -0.01    -0.12   0.26  -0.02
  63   1    -0.01  -0.01  -0.01    -0.01   0.00   0.02    -0.01  -0.03  -0.00
  64   8     0.01   0.00   0.03    -0.03  -0.02  -0.07     0.03   0.05   0.04
  65   6     0.01   0.01  -0.01    -0.03   0.02   0.01     0.02   0.01   0.01
  66   6    -0.02   0.03  -0.04    -0.03   0.00   0.03     0.01   0.01   0.02
  67   6    -0.03   0.03  -0.02    -0.05  -0.00   0.04     0.00   0.01   0.02
  68   6    -0.02   0.00  -0.01     0.01  -0.01  -0.05     0.02   0.02   0.01
  69   8     0.01  -0.02   0.02     0.04  -0.10  -0.01     0.02  -0.00   0.02
  70   6     0.01  -0.02   0.05     0.06  -0.01   0.01     0.02  -0.01   0.01
  71   6    -0.03   0.01   0.04    -0.00   0.02  -0.02    -0.07  -0.02  -0.04
  72   8     0.01  -0.03  -0.01     0.02   0.00  -0.01     0.05  -0.01   0.01
  73   8     0.02  -0.02   0.02    -0.01   0.04   0.10    -0.08  -0.02  -0.04
  74   8    -0.01   0.02   0.00    -0.02   0.02   0.03     0.01  -0.01  -0.02
  75   1     0.03  -0.02  -0.04    -0.04   0.04   0.04    -0.00   0.01   0.00
  76   1    -0.07   0.02  -0.06    -0.02   0.00   0.04     0.01   0.00   0.02
  77   1    -0.08   0.04  -0.02    -0.05  -0.00   0.05     0.01   0.02   0.04
  78   1    -0.02  -0.02  -0.05     0.05   0.01  -0.12     0.03   0.02  -0.00
  79   1     0.02  -0.01   0.06     0.14  -0.04   0.01     0.03  -0.01   0.01
  80   1    -0.06   0.02   0.07    -0.09  -0.01   0.03    -0.19  -0.09   0.01
  81   1    -0.04   0.03   0.02    -0.02   0.04  -0.12    -0.11   0.06  -0.16
  82   1     0.02  -0.05  -0.07     0.01  -0.05   0.02     0.07  -0.01  -0.07
  83   1    -0.07   0.21  -0.07     0.02   0.11   0.03    -0.21   0.10  -0.02
  84   1     0.00   0.01   0.01    -0.03   0.03   0.06     0.02  -0.04   0.00
  85   8    -0.00  -0.01  -0.03    -0.02  -0.01  -0.14     0.00   0.02   0.02
  86   6    -0.01  -0.01   0.00    -0.03   0.01  -0.02     0.01   0.02   0.00
  87   6     0.04  -0.01   0.04     0.03  -0.04   0.00     0.00   0.00   0.01
  88   6     0.05  -0.00   0.02     0.01  -0.05   0.05     0.01  -0.01   0.00
  89   6     0.02   0.01   0.02     0.01   0.02  -0.03     0.02  -0.00   0.01
  90   8    -0.02   0.00  -0.03     0.10   0.01   0.04     0.01   0.01   0.01
  91   6    -0.02   0.01  -0.05     0.07   0.03   0.05     0.01   0.01  -0.00
  92   6     0.03   0.01  -0.04    -0.02   0.00   0.02    -0.03  -0.04  -0.04
  93   8    -0.03   0.02   0.01    -0.00  -0.02  -0.05    -0.02  -0.01   0.01
  94   8    -0.03  -0.00  -0.02    -0.06   0.01   0.06    -0.02  -0.00  -0.01
  95   8     0.02  -0.01  -0.00    -0.03   0.01   0.02     0.01  -0.00  -0.01
  96   1    -0.04  -0.01   0.05    -0.09  -0.02  -0.01     0.01   0.02   0.01
  97   1     0.07   0.03   0.06     0.09   0.00  -0.01     0.01   0.01   0.00
  98   1     0.09   0.03   0.02     0.05  -0.01   0.06     0.01  -0.01  -0.01
  99   1     0.00   0.03   0.05     0.02   0.08  -0.11     0.02  -0.01   0.01
 100   1    -0.02   0.00  -0.07     0.12   0.08   0.08     0.02   0.02  -0.00
 101   1     0.06   0.03  -0.08    -0.08  -0.08   0.08    -0.05  -0.16  -0.00
 102   1     0.06   0.00  -0.02    -0.06   0.01  -0.08    -0.10  -0.02  -0.14
 103   1    -0.05   0.02   0.07    -0.00  -0.04   0.03    -0.03   0.02  -0.01
 104   1     0.17  -0.09   0.07    -0.02   0.04   0.03    -0.06   0.01  -0.02
 105   1     0.00  -0.01  -0.01    -0.03   0.01   0.04     0.03  -0.01   0.01
 106   8    -0.00   0.00   0.03    -0.03  -0.01  -0.11     0.03  -0.00   0.00
 107   6    -0.01   0.01  -0.01    -0.02  -0.00  -0.03     0.00   0.01  -0.00
 108   6    -0.03  -0.02  -0.04     0.07   0.00  -0.01     0.00  -0.01  -0.02
 109   6    -0.03  -0.03  -0.02     0.05   0.00   0.04     0.01  -0.00  -0.02
 110   6    -0.00  -0.02  -0.02    -0.02   0.02  -0.01     0.03  -0.01   0.00
 111   8     0.02   0.01   0.02     0.03   0.07   0.05    -0.00   0.00  -0.00
 112   6     0.02   0.01   0.05     0.02   0.05   0.05    -0.01   0.00  -0.01
 113   6    -0.01  -0.03   0.04    -0.01  -0.02   0.03    -0.00  -0.00  -0.01
 114   8     0.03   0.01  -0.01     0.01  -0.04  -0.06    -0.02  -0.09   0.01
 115   8     0.02   0.03   0.02    -0.03  -0.03   0.02    -0.03   0.07   0.03
 116   8    -0.02  -0.01   0.00    -0.02  -0.01   0.01     0.00   0.00   0.00
 117   1     0.02   0.03  -0.05    -0.04  -0.07  -0.02     0.00   0.03   0.00
 118   1    -0.02  -0.07  -0.07     0.08   0.08  -0.02     0.00  -0.00  -0.02
 119   1    -0.04  -0.08  -0.02     0.05   0.07   0.05     0.02  -0.01  -0.05
 120   1     0.02  -0.02  -0.05    -0.05   0.06  -0.06     0.04  -0.02   0.01
 121   1     0.01   0.02   0.07     0.02   0.09   0.07    -0.01   0.01  -0.01
 122   1    -0.02  -0.06   0.07    -0.01  -0.08   0.08     0.01  -0.01  -0.01
 123   1    -0.04  -0.04   0.02    -0.04  -0.03  -0.03    -0.00  -0.00  -0.02
 124   1     0.05   0.02  -0.07    -0.02  -0.04   0.01    -0.06  -0.08   0.06
 125   1    -0.23  -0.07  -0.08     0.02   0.01   0.03     0.06   0.19   0.01
 126   1    -0.01   0.00   0.01    -0.02  -0.01   0.02     0.00   0.00   0.01
 127   8     0.01  -0.00  -0.03    -0.03  -0.02  -0.04     0.04   0.02  -0.02
 128   6     0.01  -0.01   0.00    -0.01   0.01  -0.03     0.01   0.00  -0.00
 129   6     0.01   0.04   0.04     0.02   0.05  -0.03     0.01  -0.00  -0.02
 130   6     0.00   0.05   0.03    -0.00   0.04   0.00     0.01   0.01  -0.02
 131   6    -0.01   0.02   0.02    -0.03  -0.00   0.03     0.03   0.01  -0.00
 132   8    -0.00  -0.03  -0.03    -0.05  -0.01   0.05    -0.00  -0.01  -0.01
 133   6    -0.01  -0.02  -0.05     0.01   0.01   0.03    -0.00  -0.01  -0.01
 134   6    -0.01   0.03  -0.05     0.01  -0.01   0.04    -0.03   0.02   0.02
 135   8    -0.02  -0.03   0.01     0.04  -0.03  -0.05     0.04  -0.08   0.00
 136   8     0.00  -0.03  -0.02     0.01  -0.01  -0.05    -0.10   0.04   0.04
 137   8     0.01   0.02  -0.00    -0.01  -0.00  -0.01     0.00  -0.01   0.01
 138   1     0.01  -0.04   0.05     0.02  -0.02  -0.04    -0.01   0.02   0.01
 139   1    -0.04   0.07   0.07    -0.00   0.09  -0.04     0.00   0.00  -0.01
 140   1    -0.03   0.09   0.02    -0.04   0.09   0.01     0.02   0.02  -0.07
 141   1    -0.03  -0.00   0.06    -0.03  -0.01   0.04     0.05   0.02   0.01
 142   1    -0.00  -0.02  -0.07     0.01  -0.02   0.04     0.00  -0.01  -0.01
 143   1    -0.04   0.06  -0.08    -0.01  -0.02   0.04    -0.10   0.04  -0.01
 144   1    -0.00   0.06  -0.02     0.01  -0.01   0.05    -0.02   0.06   0.07
 145   1    -0.02  -0.05   0.07    -0.00  -0.06  -0.00     0.03  -0.10   0.09
 146   1     0.10   0.18   0.07     0.07   0.05   0.00    -0.12   0.26   0.02
 147   1     0.01   0.01  -0.01    -0.01   0.00  -0.02    -0.01  -0.02   0.00
 148   8    -0.01  -0.00   0.03    -0.03  -0.02   0.07     0.03   0.05  -0.04
 149   6    -0.01  -0.01  -0.01    -0.02   0.02  -0.01     0.02   0.01  -0.01
 150   6     0.02  -0.03  -0.04    -0.03   0.00  -0.03     0.01   0.01  -0.02
 151   6     0.03  -0.03  -0.02    -0.05  -0.00  -0.04     0.00   0.01  -0.02
 152   6     0.02   0.00  -0.01     0.01  -0.01   0.05     0.02   0.02  -0.01
 153   8    -0.02   0.02   0.03     0.04  -0.10   0.01     0.02  -0.00  -0.02
 154   6    -0.01   0.02   0.05     0.06  -0.01  -0.01     0.02  -0.01  -0.01
 155   6     0.03  -0.01   0.04    -0.00   0.02   0.02    -0.07  -0.02   0.04
 156   8    -0.01   0.04  -0.01     0.02   0.00   0.01     0.05  -0.01  -0.01
 157   8    -0.02   0.02   0.02    -0.01   0.04  -0.10    -0.08  -0.02   0.04
 158   8     0.01  -0.02   0.00    -0.02   0.02  -0.02     0.01  -0.01   0.02
 159   1    -0.03   0.02  -0.05    -0.04   0.03  -0.04    -0.00   0.01  -0.00
 160   1     0.07  -0.02  -0.07    -0.02   0.00  -0.03     0.01   0.00  -0.02
 161   1     0.08  -0.04  -0.02    -0.05  -0.00  -0.05     0.01   0.02  -0.04
 162   1     0.02   0.02  -0.05     0.05   0.01   0.12     0.03   0.02   0.00
 163   1    -0.02   0.01   0.07     0.14  -0.04  -0.01     0.03  -0.01  -0.01
 164   1     0.06  -0.02   0.07    -0.09  -0.01  -0.03    -0.19  -0.09  -0.01
 165   1     0.04  -0.03   0.02    -0.02   0.04   0.12    -0.11   0.06   0.16
 166   1    -0.02   0.05  -0.07     0.00  -0.05  -0.02     0.06  -0.01   0.07
 167   1     0.07  -0.22  -0.07     0.02   0.11  -0.03    -0.21   0.10   0.02
 168   1     0.00  -0.01   0.01    -0.03   0.03  -0.06     0.02  -0.04  -0.00
                     1                      2                      3
                     A                      A                      A
 Frequencies --   275.1167               384.3448               186.7044
 Red. masses --     3.7643                 2.0721                 4.2317
 Frc consts  --     0.0747                 0.0803                 0.0387
 IR Inten    --     0.0906               170.8549                 0.1355
  Atom  AN      X      Y      Z        X      Y      Z        X      Y      Z
   1   8    -0.00  -0.05   0.00     0.01  -0.02   0.01    -0.04   0.04   0.01
   2   6    -0.02  -0.01   0.02    -0.00   0.01   0.01    -0.03   0.04   0.06
   3   6    -0.02  -0.00   0.04    -0.01   0.01   0.01    -0.00  -0.01   0.06
   4   6    -0.03   0.02   0.02    -0.01   0.01  -0.00    -0.00  -0.01   0.03
   5   6    -0.02   0.02   0.02    -0.00   0.00  -0.01     0.01  -0.03   0.00
   6   8    -0.02  -0.01   0.04    -0.01  -0.00   0.00    -0.02  -0.01   0.02
   7   6    -0.02   0.00   0.02    -0.01   0.01   0.01    -0.02   0.02   0.05
   8   6     0.05   0.05  -0.03     0.01   0.00   0.01    -0.03  -0.04   0.06
   9   8     0.01  -0.02   0.01    -0.00  -0.00  -0.02     0.03  -0.05   0.00
  10   8     0.06  -0.01  -0.02     0.00  -0.01  -0.00     0.03   0.02   0.00
  11   8    -0.00  -0.01  -0.02     0.01  -0.00   0.01     0.03  -0.00  -0.04
  12   1     0.01   0.01   0.02     0.01   0.02   0.01    -0.03   0.04   0.05
  13   1    -0.04  -0.03   0.06    -0.02   0.00   0.02     0.02  -0.03   0.12
  14   1    -0.06   0.01  -0.03    -0.03  -0.00  -0.01    -0.02  -0.02   0.04
  15   1    -0.02  -0.00   0.02     0.00  -0.01  -0.01     0.02  -0.07  -0.01
  16   1    -0.02   0.00   0.02    -0.00   0.01   0.01    -0.01   0.05   0.03
  17   1     0.08   0.18   0.03     0.02   0.01   0.02    -0.00  -0.15   0.06
  18   1     0.13   0.03  -0.14     0.02  -0.00  -0.00    -0.08  -0.02   0.14
  19   1     0.02  -0.03   0.02    -0.01   0.01   0.00     0.03  -0.05   0.02
  20   1     0.12  -0.02  -0.02    -0.04   0.00   0.00     0.11   0.01  -0.00
  21   1    -0.05   0.01   0.01     0.01  -0.00   0.00     0.05  -0.01  -0.04
  22   8    -0.02   0.05  -0.04     0.00   0.01  -0.02     0.06   0.00  -0.02
  23   6     0.03   0.03  -0.04     0.01   0.01   0.00     0.06  -0.01  -0.06
  24   6     0.01   0.00  -0.03     0.02  -0.01   0.02    -0.00   0.01  -0.06
  25   6     0.02   0.01  -0.00     0.00  -0.00   0.00    -0.00   0.01  -0.03
  26   6     0.01   0.01  -0.00    -0.01  -0.00  -0.01    -0.03   0.01  -0.01
  27   8    -0.02   0.05  -0.03    -0.02   0.00  -0.00     0.00   0.02  -0.03
  28   6     0.03   0.02  -0.03    -0.01   0.01   0.02     0.04  -0.01  -0.05
  29   6     0.02  -0.07   0.03    -0.01   0.02   0.02    -0.01   0.03  -0.05
  30   8    -0.05  -0.07  -0.02     0.01  -0.03   0.03    -0.06   0.03   0.01
  31   8    -0.05   0.03  -0.02     0.02   0.02  -0.02    -0.02  -0.02  -0.01
  32   8     0.01   0.02   0.04     0.00  -0.00  -0.01    -0.02  -0.01   0.04
  33   1     0.03   0.00  -0.03     0.01   0.02  -0.01     0.06  -0.01  -0.05
  34   1    -0.00   0.02  -0.06     0.02  -0.03   0.02    -0.03   0.01  -0.12
  35   1     0.03   0.03   0.03    -0.00   0.00  -0.01    -0.00   0.03  -0.03
  36   1    -0.01   0.02   0.01    -0.00  -0.01   0.00    -0.06   0.03  -0.00
  37   1     0.03  -0.01  -0.02    -0.00   0.00   0.04     0.04  -0.04  -0.02
  38   1     0.09  -0.20  -0.04    -0.01   0.04   0.04    -0.09   0.07  -0.06
  39   1    -0.06  -0.12   0.15     0.01   0.03   0.00     0.01   0.04  -0.12
  40   1    -0.09  -0.07  -0.07     0.00  -0.04   0.00    -0.05   0.02  -0.01
  41   1     0.02   0.10  -0.01    -0.35  -0.15   0.11    -0.08  -0.06  -0.00
  42   1     0.06   0.04   0.00    -0.01  -0.01  -0.02    -0.04  -0.02   0.03
  43   8     0.02  -0.02   0.06    -0.03  -0.00  -0.05    -0.04  -0.04   0.01
  44   6    -0.01  -0.04   0.03     0.02   0.02  -0.01    -0.04  -0.03   0.06
  45   6    -0.01   0.00   0.00     0.04   0.02   0.02     0.01  -0.00   0.06
  46   6     0.00   0.00  -0.00     0.01   0.01   0.01     0.01  -0.00   0.03
  47   6     0.02   0.01  -0.02    -0.00  -0.02   0.00     0.03   0.01   0.00
  48   8     0.05  -0.01   0.01    -0.02  -0.00  -0.01     0.02  -0.02   0.02
  49   6    -0.01  -0.03   0.02    -0.00   0.01   0.01    -0.02  -0.02   0.05
  50   6    -0.05   0.01  -0.02    -0.02  -0.01   0.00     0.04  -0.03   0.06
  51   8    -0.03   0.08   0.02     0.03  -0.01   0.05     0.06   0.03   0.00
  52   8     0.05  -0.03   0.03    -0.00   0.04  -0.01    -0.02   0.03   0.00
  53   8     0.00  -0.03  -0.04    -0.00  -0.03  -0.03     0.00   0.02  -0.04
  54   1    -0.02  -0.04   0.01     0.02   0.01  -0.02    -0.04  -0.03   0.05
  55   1    -0.01   0.02   0.03     0.05   0.00   0.01     0.03   0.02   0.12
[...]
  88   6    -0.02   0.01  -0.02     0.00  -0.07  -0.01    -0.00  -0.00  -0.00
  89   6     0.01  -0.00   0.01    -0.04  -0.11   0.00    -0.00   0.00   0.00
  90   8     0.00  -0.00  -0.00    -0.06  -0.04   0.01    -0.00   0.00   0.00
  91   6    -0.00   0.02   0.00    -0.05   0.04   0.00     0.00  -0.00  -0.00
  92   6    -0.00  -0.01   0.00     0.03  -0.01   0.01    -0.00  -0.00  -0.00
  93   8    -0.00   0.01   0.00     0.03   0.03   0.03     0.00   0.00   0.00
  94   8     0.00  -0.01   0.01    -0.04  -0.00   0.01     0.00  -0.01  -0.01
  95   8    -0.00   0.01   0.00     0.04  -0.00  -0.03     0.00   0.00   0.00
  96   1     0.07  -0.05  -0.15     0.11   0.14   0.02     0.00  -0.00   0.00
  97   1     0.14   0.06  -0.07     0.05   0.07  -0.05     0.00  -0.00  -0.00
  98   1     0.06   0.08   0.01    -0.02  -0.11  -0.08    -0.00  -0.00   0.00
  99   1     0.02  -0.02   0.01    -0.06  -0.09   0.02    -0.00  -0.00  -0.00
 100   1    -0.03  -0.07  -0.11    -0.05   0.06   0.05    -0.00   0.00   0.00
 101   1    -0.02   0.02   0.01     0.05   0.03  -0.02     0.00   0.00   0.00
 102   1     0.06  -0.04  -0.02     0.05  -0.02   0.04    -0.00  -0.00  -0.00
 103   1     0.03  -0.04  -0.04     0.04   0.04  -0.01    -0.01  -0.00  -0.00
 104   1     0.02   0.03  -0.03     0.02   0.01  -0.01     0.00   0.08   0.09
 105   1     0.05  -0.01  -0.00     0.05  -0.01  -0.04    -0.00  -0.00  -0.00
 106   8    -0.01   0.00  -0.01    -0.05  -0.11  -0.07    -0.00   0.00   0.00
 107   6    -0.01   0.00   0.03    -0.01  -0.08  -0.01     0.00  -0.00  -0.00
 108   6     0.01  -0.02   0.00     0.05  -0.02   0.01    -0.00   0.00   0.00
 109   6    -0.02  -0.01  -0.02    -0.01   0.06   0.00     0.00  -0.00  -0.00
 110   6     0.01   0.01   0.01    -0.04   0.10  -0.01     0.00   0.00   0.00
 111   8     0.00  -0.00  -0.00    -0.02   0.12   0.03    -0.00   0.00   0.00
 112   6    -0.01   0.01   0.00     0.03   0.04   0.03     0.00  -0.00  -0.00
 113   6     0.01  -0.01   0.00    -0.01  -0.01   0.01     0.00  -0.00  -0.00
 114   8    -0.01   0.00   0.00     0.00  -0.04  -0.04     0.00   0.00   0.00
 115   8     0.01  -0.01   0.01     0.02   0.04  -0.04     0.00  -0.00  -0.01
 116   8    -0.01   0.00   0.00    -0.02  -0.02   0.01    -0.00   0.00   0.00
 117   1     0.09   0.02  -0.16    -0.04  -0.18  -0.00     0.00   0.00   0.00
 118   1     0.06   0.15  -0.07     0.04  -0.02   0.02     0.00   0.00  -0.00
 119   1    -0.01   0.10   0.01    -0.02   0.13   0.04     0.00  -0.00   0.00
 120   1     0.02  -0.00   0.01    -0.03   0.12  -0.04    -0.00  -0.00  -0.00
 121   1     0.03  -0.07  -0.12     0.04   0.04   0.02    -0.00  -0.00  -0.00
 122   1    -0.03  -0.00   0.02     0.00  -0.10   0.07     0.00   0.00   0.00
 123   1     0.08   0.02  -0.03    -0.05  -0.03  -0.07    -0.00  -0.00  -0.00
 124   1     0.06  -0.01  -0.05     0.02  -0.06   0.06    -0.00  -0.00  -0.00
 125   1    -0.01   0.04  -0.03     0.02  -0.00  -0.02    -0.06   0.06   0.09
 126   1     0.05   0.03  -0.01    -0.02  -0.02   0.04     0.00  -0.00  -0.00
 127   8    -0.00  -0.00  -0.01    -0.05   0.06   0.07    -0.00   0.00   0.00
 128   6    -0.01  -0.00   0.03    -0.00   0.05   0.00     0.00  -0.00   0.00
 129   6     0.02  -0.01   0.00    -0.02  -0.02  -0.01     0.00   0.00  -0.00
 130   6    -0.01  -0.02  -0.02     0.01  -0.04   0.01    -0.00   0.00   0.00
 131   6     0.00   0.01   0.01     0.04  -0.02   0.01     0.00   0.00  -0.00
 132   8     0.00   0.00  -0.00     0.09  -0.04  -0.04    -0.00   0.00  -0.00
 133   6    -0.02  -0.00   0.00     0.04  -0.03  -0.04     0.00  -0.00   0.00
 134   6     0.01  -0.00   0.00    -0.01   0.00  -0.02    -0.00  -0.00   0.00
 135   8    -0.01  -0.00   0.00    -0.01   0.01   0.03    -0.00   0.00   0.00
 136   8     0.01   0.00   0.01     0.01  -0.03   0.04    -0.01  -0.00   0.01
 137   8    -0.01  -0.00   0.00     0.00   0.00   0.01    -0.00   0.00   0.00
 138   1     0.05   0.07  -0.16    -0.02   0.10  -0.02    -0.00   0.00  -0.00
 139   1    -0.06   0.15  -0.07    -0.00  -0.05  -0.00    -0.00  -0.00   0.00
 140   1    -0.08   0.06   0.00     0.04  -0.07   0.01    -0.00   0.00  -0.00
 141   1     0.02   0.02   0.01     0.06  -0.03   0.05    -0.00   0.00  -0.00
 142   1     0.07  -0.03  -0.12     0.05  -0.03  -0.06     0.00  -0.00   0.00
 143   1    -0.02  -0.02   0.01    -0.07   0.05  -0.07     0.00   0.00   0.00
 144   1     0.04   0.06  -0.02    -0.00   0.03   0.06    -0.00   0.00  -0.00
 145   1     0.05   0.03  -0.05    -0.05  -0.00  -0.07     0.00  -0.00  -0.00
 146   1    -0.03   0.02  -0.03    -0.00  -0.03   0.03     0.10  -0.00  -0.11
 147   1     0.01   0.05  -0.00    -0.00  -0.00  -0.02     0.00  -0.00  -0.00
 148   8    -0.00  -0.01  -0.01     0.01   0.04  -0.03    -0.00   0.00  -0.00
 149   6    -0.00  -0.01   0.04    -0.03  -0.05   0.00    -0.00  -0.00   0.00
 150   6     0.02   0.01   0.00    -0.03   0.00  -0.01     0.00   0.00  -0.00
 151   6     0.01  -0.02  -0.02     0.01   0.05  -0.02    -0.00  -0.00   0.00
 152   6    -0.01   0.01   0.02     0.05   0.03  -0.01     0.00   0.00  -0.00
 153   8     0.00   0.00  -0.00    -0.03  -0.04   0.03    -0.00   0.00  -0.00
 154   6    -0.01  -0.02   0.00    -0.03  -0.05   0.03     0.00  -0.00   0.00
 155   6     0.01   0.01   0.00    -0.00   0.02   0.02     0.00  -0.00   0.00
 156   8    -0.00  -0.01   0.00    -0.03   0.00   0.00     0.00  -0.00   0.00
 157   8     0.01   0.01   0.01    -0.00  -0.01  -0.02    -0.02  -0.02   0.04
 158   8    -0.00  -0.01   0.00    -0.02   0.02  -0.03     0.00   0.00  -0.00
 159   1    -0.02   0.10  -0.17    -0.06  -0.06   0.04    -0.00  -0.00  -0.00
 160   1    -0.17   0.07  -0.08    -0.08   0.02  -0.02     0.00  -0.00   0.00
 161   1    -0.11  -0.01   0.01     0.01   0.07  -0.06    -0.00  -0.00  -0.00
 162   1     0.00   0.03   0.01     0.02   0.00  -0.03    -0.00   0.00   0.00
 163   1     0.08   0.03  -0.13    -0.04  -0.07   0.08     0.00   0.00   0.00
 164   1     0.00  -0.04   0.02     0.03   0.03   0.04     0.00  -0.00  -0.00
 165   1    -0.02   0.09  -0.03     0.01   0.01  -0.02    -0.00   0.00  -0.00
 166   1     0.01   0.07  -0.06    -0.02   0.03   0.03    -0.01   0.00   0.00
 167   1    -0.04  -0.01  -0.04    -0.03   0.01  -0.03     0.36   0.36  -0.57
 168   1    -0.03   0.05  -0.01    -0.02   0.03  -0.01    -0.00  -0.00   0.00
                   496                    497                    498
                     A                      A                      A
 Frequencies --  3504.2318              1476.9510               564.5787
 Red. masses --     1.0687                 1.1867                 3.9799
 Frc consts  --     3.4412                 0.6788                 0.3327
 IR Inten    --  2328.4259                 0.0312                66.9000
  Atom  AN      X      Y      Z        X      Y      Z        X      Y      Z
   1   8    -0.00  -0.00  -0.00     0.00   0.00   0.00    -0.04  -0.02  -0.03
   2   6     0.00   0.00  -0.00    -0.01  -0.00  -0.00    -0.05  -0.00  -0.08
   3   6     0.00   0.00  -0.00     0.00   0.00   0.00    -0.03  -0.03  -0.04
   4   6     0.00   0.00   0.00    -0.00  -0.00  -0.00    -0.01  -0.02   0.05
   5   6    -0.00   0.00   0.00     0.00  -0.00   0.00     0.02  -0.05   0.01
   6   8    -0.00  -0.00   0.00     0.00   0.00  -0.00    -0.02   0.05  -0.01
   7   6     0.00   0.00   0.00     0.00  -0.00   0.01    -0.02   0.06  -0.02
   8   6    -0.00   0.00  -0.00    -0.03  -0.02  -0.02     0.01  -0.01   0.00
   9   8     0.00   0.00  -0.00    -0.00   0.00  -0.00     0.03   0.03   0.01
  10   8    -0.00   0.00  -0.00    -0.00  -0.00  -0.00     0.05   0.02   0.04
  11   8    -0.01  -0.03   0.00     0.03   0.02   0.00     0.02  -0.01   0.03
  12   1    -0.00  -0.00   0.00     0.03   0.02  -0.01    -0.09   0.02  -0.17
  13   1     0.00  -0.00  -0.00    -0.01  -0.01   0.00    -0.10  -0.06  -0.08
  14   1     0.00  -0.00  -0.00     0.00   0.00   0.00    -0.02  -0.05   0.11
  15   1    -0.00  -0.00  -0.00    -0.01   0.01  -0.01     0.03  -0.07   0.02
  16   1     0.00   0.00  -0.00    -0.01  -0.01  -0.01    -0.04   0.05  -0.03
  17   1     0.00   0.00   0.00     0.02   0.07   0.05    -0.01  -0.07  -0.03
  18   1     0.00   0.01  -0.00     0.22  -0.14   0.17    -0.00  -0.01   0.08
  19   1    -0.01  -0.00   0.00     0.00  -0.01   0.01     0.07  -0.06   0.00
  20   1     0.00  -0.00   0.00     0.00   0.00   0.00     0.06   0.05   0.06
  21   1     0.14   0.39  -0.02    -0.30   0.13  -0.04     0.03  -0.02   0.00
  22   8     0.00  -0.00   0.00     0.00  -0.00  -0.00    -0.01  -0.04  -0.04
  23   6    -0.00   0.00  -0.00     0.00   0.00   0.00    -0.03  -0.02  -0.01
  24   6    -0.00   0.00  -0.00    -0.00  -0.00  -0.00     0.00  -0.01   0.00
  25   6    -0.00  -0.00  -0.00    -0.00   0.00  -0.00     0.01   0.02   0.02
  26   6    -0.00  -0.00  -0.00     0.00  -0.00   0.00     0.01   0.01  -0.03
  27   8     0.00   0.00   0.00    -0.00  -0.00   0.00    -0.02  -0.00  -0.03
  28   6    -0.00   0.00  -0.00    -0.00  -0.00  -0.00    -0.03   0.01  -0.01
  29   6    -0.00   0.00  -0.00     0.00   0.02   0.01     0.01  -0.00  -0.01
  30   8     0.00   0.00  -0.00     0.00   0.00   0.00     0.01  -0.00   0.02
  31   8    -0.00   0.00  -0.00     0.00  -0.00   0.00     0.01   0.02   0.04
  32   8     0.00  -0.00   0.00    -0.00  -0.02  -0.00     0.01   0.01   0.02
  33   1     0.00  -0.00   0.00    -0.00  -0.02   0.01    -0.05  -0.00  -0.05
  34   1     0.00   0.00  -0.00     0.00   0.00   0.00     0.01  -0.01   0.01
  35   1     0.00  -0.00   0.00     0.00  -0.00   0.00     0.01   0.02   0.04
  36   1     0.00   0.00  -0.00    -0.00   0.00   0.01     0.01   0.00  -0.05
  37   1     0.00  -0.00  -0.00    -0.00   0.01  -0.00    -0.04   0.03  -0.03
  38   1     0.00   0.00  -0.00     0.02  -0.02  -0.01     0.02  -0.01  -0.01
  39   1    -0.00  -0.00  -0.00    -0.13  -0.03  -0.07     0.01  -0.00   0.02
  40   1    -0.00  -0.01   0.00    -0.00   0.00  -0.00     0.04  -0.01  -0.00
  41   1     0.00  -0.00   0.00    -0.00   0.00   0.00     0.03   0.01   0.02
  42   1    -0.03   0.08  -0.00     0.16   0.06   0.02     0.02   0.01   0.01
  43   8     0.00   0.00   0.00     0.00   0.00  -0.00     0.01  -0.00  -0.03
  44   6    -0.00   0.00  -0.00    -0.00   0.00   0.00    -0.02   0.01   0.06
  45   6     0.00  -0.00  -0.00     0.00  -0.00  -0.00    -0.02   0.03   0.04
  46   6     0.00  -0.00  -0.00     0.00   0.00   0.00    -0.03   0.03  -0.03
  47   6     0.00  -0.00  -0.00    -0.00  -0.00  -0.00    -0.04  -0.00  -0.05
  48   8    -0.00   0.00   0.00     0.00  -0.00   0.00     0.04  -0.00  -0.03
  49   6     0.00  -0.00  -0.00    -0.00  -0.00  -0.00     0.02  -0.00   0.01
  50   6    -0.00  -0.00   0.00    -0.01   0.01   0.01    -0.00  -0.00  -0.00
  51   8    -0.00   0.00   0.00     0.00   0.00   0.00     0.03  -0.02   0.01
  52   8    -0.00   0.00   0.00    -0.00   0.00   0.00     0.01  -0.02   0.01
  53   8    -0.02   0.01  -0.00     0.00  -0.01  -0.00    -0.01  -0.00  -0.01
  54   1     0.00   0.00  -0.00     0.01  -0.01   0.00    -0.02   0.05   0.10
  55   1    -0.00  -0.00   0.00    -0.00   0.00  -0.00    -0.04   0.09   0.09
  56   1    -0.00   0.00   0.00     0.00  -0.00  -0.00    -0.04   0.04  -0.05
  57   1    -0.00   0.00   0.00     0.01   0.01   0.00    -0.06  -0.02  -0.09
  58   1     0.00   0.00  -0.00     0.00   0.01   0.01    -0.01   0.02  -0.01
  59   1     0.00   0.00  -0.00     0.03  -0.02  -0.02    -0.05   0.02   0.02
  60   1     0.01  -0.00   0.00    -0.05  -0.07  -0.07    -0.00   0.01  -0.06
  61   1     0.00  -0.00  -0.00    -0.00  -0.00  -0.00    -0.01  -0.05  -0.01
  62   1     0.00  -0.00   0.00     0.00  -0.00  -0.00     0.06  -0.02  -0.03
  63   1     0.28  -0.09   0.02     0.04   0.10   0.01    -0.01  -0.00   0.02
  64   8    -0.00   0.00   0.00    -0.00  -0.00   0.00    -0.03   0.00  -0.00
  65   6     0.00  -0.00   0.00     0.01  -0.00  -0.00    -0.04   0.03   0.10
  66   6     0.00   0.00  -0.00    -0.00   0.00   0.00    -0.06  -0.01   0.06
  67   6     0.00  -0.00  -0.00     0.00  -0.00  -0.00    -0.04  -0.01  -0.06
  68   6     0.00   0.00  -0.00     0.00   0.00   0.00    -0.03  -0.05  -0.05
  69   8    -0.00   0.00   0.00    -0.00   0.00  -0.00     0.04   0.05  -0.02
  70   6     0.00   0.00  -0.00    -0.00   0.01   0.01     0.04   0.06   0.03
  71   6    -0.00  -0.00   0.00     0.04  -0.00  -0.02    -0.00  -0.02   0.01
  72   8     0.00  -0.00   0.00     0.00  -0.00  -0.00     0.05   0.00  -0.01
  73   8    -0.00  -0.00   0.00     0.00   0.00  -0.00     0.05  -0.02  -0.01
  74   8    -0.03  -0.01  -0.00    -0.03   0.00   0.00     0.01  -0.03  -0.03
  75   1    -0.00   0.00  -0.00    -0.03   0.00  -0.01    -0.06   0.09   0.22
  76   1     0.00  -0.00   0.00     0.01  -0.00   0.00    -0.14   0.03   0.12
  77   1    -0.00  -0.00   0.00    -0.01   0.00   0.00    -0.06  -0.02  -0.10
  78   1    -0.00   0.00   0.00    -0.00  -0.02  -0.01    -0.04  -0.09  -0.09
  79   1     0.00   0.00  -0.00     0.01  -0.00  -0.01     0.01   0.07   0.04
  80   1    -0.00   0.00  -0.00    -0.06  -0.03   0.04    -0.08  -0.06   0.05
  81   1     0.01   0.01   0.00    -0.05   0.24   0.16    -0.02  -0.00  -0.10
  82   1    -0.00   0.00  -0.00     0.00   0.01   0.01     0.02  -0.11  -0.02
  83   1     0.00  -0.00   0.00    -0.00  -0.00   0.00     0.10   0.01  -0.07
  84   1     0.43   0.22   0.03     0.12  -0.29  -0.03     0.01  -0.04   0.01
  85   8    -0.00  -0.00   0.00     0.00   0.00  -0.00    -0.04  -0.02   0.03
  86   6     0.00   0.00   0.00    -0.01  -0.00   0.00    -0.05  -0.00   0.08
  87   6     0.00   0.00   0.00     0.00   0.00  -0.00    -0.03  -0.03   0.04
  88   6     0.00   0.00  -0.00    -0.00  -0.00   0.00    -0.01  -0.02  -0.05
  89   6    -0.00   0.00  -0.00     0.00  -0.00  -0.00     0.02  -0.05  -0.01
  90   8    -0.00  -0.00  -0.00     0.00   0.00   0.00    -0.02   0.05   0.01
  91   6     0.00   0.00  -0.00     0.00  -0.00  -0.01    -0.02   0.06   0.02
  92   6    -0.00   0.00   0.00    -0.03  -0.02   0.02     0.01  -0.01  -0.00
  93   8     0.00   0.00   0.00    -0.00   0.00   0.00     0.03   0.03  -0.01
  94   8    -0.00   0.00   0.00    -0.00  -0.00   0.00     0.05   0.02  -0.04
  95   8    -0.01  -0.02  -0.00     0.02   0.02  -0.00     0.02  -0.01  -0.03
  96   1    -0.00  -0.00  -0.00     0.03   0.02   0.01    -0.09   0.02   0.16
  97   1     0.00  -0.00   0.00    -0.01  -0.01  -0.00    -0.10  -0.06   0.08
  98   1     0.00  -0.00   0.00     0.00   0.00  -0.00    -0.02  -0.05  -0.11
  99   1    -0.00  -0.00   0.00    -0.01   0.01   0.01     0.04  -0.07  -0.02
 100   1     0.00   0.00   0.00    -0.01  -0.01   0.01    -0.03   0.05   0.03
 101   1     0.00   0.00  -0.00     0.02   0.06  -0.04    -0.00  -0.07   0.03
 102   1     0.00   0.01   0.00     0.21  -0.14  -0.16    -0.00  -0.01  -0.08
 103   1    -0.01  -0.00  -0.00     0.00  -0.01  -0.01     0.07  -0.06  -0.00
 104   1     0.00  -0.00  -0.00     0.00  -0.00   0.00     0.06   0.05  -0.06
 105   1     0.13   0.38   0.02    -0.29   0.12   0.04     0.03  -0.02  -0.01
 106   8     0.00  -0.00  -0.00     0.00  -0.00   0.00    -0.01  -0.04   0.04
 107   6    -0.00   0.00   0.00     0.00   0.00  -0.00    -0.03  -0.02   0.01
 108   6    -0.00   0.00   0.00    -0.00  -0.00   0.00     0.00  -0.01  -0.00
 109   6    -0.00  -0.00   0.00    -0.00   0.00   0.00     0.01   0.02  -0.01
 110   6    -0.00  -0.00   0.00     0.00  -0.00  -0.00     0.01   0.01   0.03
 111   8     0.00   0.00  -0.00    -0.00  -0.00  -0.00    -0.02  -0.00   0.03
 112   6    -0.00  -0.00   0.00    -0.00  -0.00   0.00    -0.03   0.01   0.01
 113   6    -0.00   0.00   0.00     0.00   0.01  -0.01     0.01  -0.00   0.01
 114   8     0.00   0.00   0.00     0.00   0.00  -0.00     0.01  -0.00  -0.02
 115   8    -0.00   0.00   0.00     0.00  -0.00  -0.00     0.01   0.02  -0.04
 116   8     0.00  -0.00  -0.00    -0.00  -0.01   0.00     0.01   0.01  -0.02
 117   1     0.00  -0.00  -0.00    -0.00  -0.01  -0.00    -0.05  -0.00   0.05
 118   1     0.00   0.00   0.00     0.00   0.00  -0.00     0.01  -0.01  -0.01
 119   1     0.00  -0.00  -0.00     0.00  -0.00  -0.00     0.01   0.02  -0.04
 120   1     0.00   0.00   0.00    -0.01   0.00  -0.00     0.01   0.01   0.05
 121   1     0.00  -0.00   0.00    -0.00   0.00   0.00    -0.04   0.03   0.03
 122   1     0.00   0.00   0.00     0.02  -0.01   0.01     0.02  -0.01   0.01
 123   1     0.00  -0.00   0.00    -0.09  -0.02   0.05     0.01  -0.00  -0.02
 124   1    -0.00  -0.01  -0.00    -0.00   0.00   0.00     0.04  -0.01   0.00
 125   1     0.00  -0.00  -0.00    -0.00   0.00  -0.00     0.03   0.01  -0.02
 126   1    -0.02   0.05   0.00     0.12   0.05  -0.01     0.02   0.01  -0.01
 127   8     0.00   0.00  -0.00     0.00   0.00   0.00     0.01  -0.00   0.03
 128   6    -0.00   0.00   0.00    -0.00   0.00  -0.00    -0.02   0.01  -0.06
 129   6     0.00  -0.00   0.00     0.00  -0.00   0.00    -0.02   0.03  -0.04
 130   6     0.00  -0.00   0.00     0.00   0.00  -0.00    -0.03   0.03   0.03
 131   6     0.00  -0.00   0.00    -0.00  -0.00   0.00    -0.04  -0.00   0.05
 132   8    -0.00   0.00  -0.00     0.00  -0.00  -0.00     0.04  -0.00   0.03
 133   6     0.00  -0.00   0.00    -0.00  -0.00   0.00     0.02  -0.00  -0.01
 134   6    -0.00  -0.00  -0.00    -0.01   0.01  -0.01    -0.00  -0.00   0.00
 135   8    -0.00   0.00  -0.00     0.00   0.00  -0.00     0.03  -0.02  -0.01
 136   8    -0.00   0.00  -0.00    -0.00   0.00  -0.00     0.01  -0.02  -0.01
 137   8    -0.02   0.01   0.00     0.01  -0.01   0.00    -0.01  -0.00   0.01
 138   1     0.00   0.00   0.00     0.01  -0.01  -0.00    -0.02   0.05  -0.10
 139   1    -0.00  -0.00  -0.00    -0.00   0.00   0.00    -0.04   0.09  -0.09
 140   1    -0.00   0.00  -0.00     0.00  -0.00   0.00    -0.04   0.04   0.05
 141   1    -0.00   0.00  -0.00     0.01   0.01  -0.00    -0.06  -0.02   0.09
 142   1     0.00   0.00   0.00    -0.00   0.01  -0.01    -0.01   0.02   0.01
 143   1     0.00   0.00   0.00     0.04  -0.02   0.03    -0.05   0.02  -0.02
 144   1     0.01  -0.00  -0.00    -0.06  -0.10   0.09    -0.00   0.01   0.06
 145   1     0.00  -0.00   0.00    -0.01  -0.00   0.01    -0.01  -0.05   0.01
 146   1     0.00  -0.00  -0.00     0.00  -0.00   0.00     0.06  -0.02   0.03
 147   1     0.29  -0.10  -0.02     0.05   0.14  -0.02    -0.01  -0.00  -0.02
 148   8    -0.00   0.00  -0.00    -0.00  -0.00  -0.00    -0.03   0.00   0.00
 149   6     0.00  -0.00  -0.00     0.01  -0.00   0.00    -0.04   0.03  -0.10
 150   6     0.00   0.00   0.00    -0.01   0.00  -0.00    -0.06  -0.01  -0.06
 151   6     0.00  -0.00   0.00     0.00  -0.00   0.00    -0.04  -0.01   0.06
 152   6     0.00   0.00   0.00     0.00   0.00  -0.00    -0.03  -0.05   0.05
 153   8    -0.00   0.00  -0.00    -0.00   0.00   0.00     0.04   0.05   0.02
 154   6     0.00   0.00   0.00    -0.00   0.01  -0.01     0.04   0.06  -0.03
 155   6    -0.00  -0.00  -0.00     0.04  -0.00   0.02    -0.00  -0.02  -0.01
 156   8     0.00  -0.00  -0.00     0.00  -0.00   0.00     0.05   0.00   0.01
 157   8    -0.00  -0.00  -0.00     0.00   0.00   0.00     0.05  -0.02   0.01
 158   8    -0.03  -0.01   0.00    -0.03   0.00  -0.00     0.01  -0.03   0.03
 159   1    -0.00   0.00   0.00    -0.03   0.00   0.01    -0.06   0.09  -0.22
 160   1     0.00  -0.00  -0.00     0.01  -0.00  -0.00    -0.14   0.03  -0.12
 161   1    -0.00  -0.00  -0.00    -0.01   0.00  -0.00    -0.07  -0.02   0.10
 162   1    -0.00   0.00  -0.00    -0.01  -0.02   0.01    -0.04  -0.09   0.09
 163   1     0.00   0.00   0.00     0.01  -0.00   0.01     0.01   0.07  -0.04
 164   1    -0.00   0.00   0.00    -0.06  -0.03  -0.05    -0.08  -0.06  -0.05
 165   1     0.01   0.01  -0.00    -0.06   0.26  -0.17    -0.02  -0.00   0.10
 166   1    -0.00   0.00   0.00     0.00   0.01  -0.01     0.02  -0.11   0.02
 167   1     0.00  -0.00  -0.00    -0.00  -0.00  -0.00     0.10   0.01   0.07
 168   1     0.43   0.22  -0.03     0.13  -0.31   0.03     0.01  -0.04  -0.01

 -------------------
 - Thermochemistry -
 -------------------
